WARNING: release_mt library was used but no multi-ep feature was enabled. Please use release library instead.

     Program PWSCF v.6.7MaX starts on  9Sep2021 at 16: 8:34 

     This program is part of the open-source Quantum ESPRESSO suite
     for quantum simulation of materials; please cite
         "P. Giannozzi et al., J. Phys.:Condens. Matter 21 395502 (2009);
         "P. Giannozzi et al., J. Phys.:Condens. Matter 29 465901 (2017);
          URL http://www.quantum-espresso.org", 
     in publications or presentations arising from this work. More details at
     http://www.quantum-espresso.org/quote

     Parallel version (MPI & OpenMP), running on       8 processor cores
     Number of MPI processes:                 1
     Threads/MPI process:                     8

     MPI processes distributed on     1 nodes
     Reading input from alnscf.in

     Current dimensions of program PWSCF are:
     Max number of different atomic species (ntypx) = 10
     Max number of k-points (npk) =  40000
     Max angular momentum in pseudopotentials (lmaxx) =  3
     file Al.pbesol-n-kjpaw_psl.1.0.0.UPF: wavefunction(s)  3S 3P renormalized

     Subspace diagonalization in iterative solution of the eigenvalue problem:
     a serial algorithm will be used

     Message from routine setup:
     using ibrav=0 with symmetry is DISCOURAGED, use correct ibrav instead

     G-vector sticks info
     --------------------
     sticks:   dense  smooth     PW     G-vecs:    dense   smooth      PW
     Sum        1135     559    163                49621    17525    2875



     bravais-lattice index     =            0
     lattice parameter (alat)  =       5.8222  a.u.
     unit-cell volume          =     279.1033 (a.u.)^3
     number of atoms/cell      =            4
     number of atomic types    =            2
     number of electrons       =        16.00
     number of Kohn-Sham states=           12
     kinetic-energy cutoff     =      60.0000  Ry
     charge density cutoff     =     480.0000  Ry
     scf convergence threshold =      8.0E-10
     mixing beta               =       0.4000
     number of iterations used =            8  plain     mixing
     Exchange-correlation= PBESOL
                           (   1   4  10   8   0   0   0)

     celldm(1)=   5.822246  celldm(2)=   0.000000  celldm(3)=   0.000000
     celldm(4)=   0.000000  celldm(5)=   0.000000  celldm(6)=   0.000000

     crystal axes: (cart. coord. in units of alat)
               a(1) = (   1.000000   0.000000   0.000000 )  
               a(2) = (  -0.500000   0.866025   0.000000 )  
               a(3) = (   0.000000   0.000000   1.632911 )  

     reciprocal axes: (cart. coord. in units 2 pi/alat)
               b(1) = (  1.000000  0.577350 -0.000000 )  
               b(2) = (  0.000000  1.154701  0.000000 )  
               b(3) = (  0.000000 -0.000000  0.612403 )  


     PseudoPot. # 1 for Al read from file:
     ./pseudo/Al.pbesol-n-kjpaw_psl.1.0.0.UPF
     MD5 check sum: 3401bcfaaf5f9b08e46a00870a1ef39d
     Pseudo is Projector augmented-wave + core cor, Zval =  3.0
     Generated using "atomic" code by A. Dal Corso  v.6.0 svn rev. 13079
     Shape of augmentation charge: PSQ
     Using radial grid of 1135 points,  6 beta functions with: 
                l(1) =   0
                l(2) =   0
                l(3) =   1
                l(4) =   1
                l(5) =   2
                l(6) =   2
     Q(r) pseudized with 0 coefficients 


     PseudoPot. # 2 for N  read from file:
     ./pseudo/N.pbesol-theos.UPF
     MD5 check sum: 1b64827339d390a5a22afef3ff345c9d
     Pseudo is Ultrasoft + core correction, Zval =  5.0
     Generated using "atomic" code by A. Dal Corso  v.5.1
     Using radial grid of 1085 points,  4 beta functions with: 
                l(1) =   0
                l(2) =   0
                l(3) =   1
                l(4) =   1
     Q(r) pseudized with 0 coefficients 


     atomic species   valence    mass     pseudopotential
        Al             3.00    26.98154     Al( 1.00)
        N              5.00    14.00670     N ( 1.00)

      4 Sym. Ops. (no inversion) found ( 2 have fractional translation)


                                    s                        frac. trans.

      isym =  1     identity                                     

 cryst.   s( 1) = (     1          0          0      )
                  (     0          1          0      )
                  (     0          0          1      )

 cart.    s( 1) = (  1.0000000  0.0000000  0.0000000 )
                  (  0.0000000  1.0000000  0.0000000 )
                  (  0.0000000  0.0000000  1.0000000 )


      isym =  2     180 deg rotation - cart. axis [0,0,1]        

 cryst.   s( 2) = (    -1          0          0      )    f =(  0.0000000 )
                  (     0         -1          0      )       (  0.0000000 )
                  (     0          0          1      )       (  0.5000000 )

 cart.    s( 2) = ( -1.0000000  0.0000000  0.0000000 )    f =(  0.0000000 )
                  (  0.0000000 -1.0000000  0.0000000 )       (  0.0000000 )
                  (  0.0000000  0.0000000  1.0000000 )       (  0.8164557 )


      isym =  3     inv. 180 deg rotation - cart. axis [0,1,0]   

 cryst.   s( 3) = (     1          0          0      )    f =(  0.0000000 )
                  (    -1         -1          0      )       (  0.0000000 )
                  (     0          0          1      )       (  0.5000000 )

 cart.    s( 3) = (  1.0000000  0.0000000  0.0000000 )    f =(  0.0000000 )
                  (  0.0000000 -1.0000000  0.0000000 )       (  0.0000000 )
                  (  0.0000000  0.0000000  1.0000000 )       (  0.8164557 )


      isym =  4     inv. 180 deg rotation - cart. axis [1,0,0]   

 cryst.   s( 4) = (    -1          0          0      )
                  (     1          1          0      )
                  (     0          0          1      )

 cart.    s( 4) = ( -1.0000000  0.0000000  0.0000000 )
                  (  0.0000000  1.0000000  0.0000000 )
                  (  0.0000000  0.0000000  1.0000000 )


   Cartesian axes

     site n.     atom                  positions (alat units)
         1           Al  tau(   1) = (   0.5000000   0.2887329   0.8164557  )
         2           Al  tau(   2) = (   0.0000000   0.5772925   0.0000000  )
         3           N   tau(   3) = (   0.5000000   0.2887329   1.4402278  )
         4           N   tau(   4) = (   0.0000000   0.5772925   0.6237722  )

   Crystallographic axes

     site n.     atom                  positions (cryst. coord.)
         1           Al  tau(   1) = (  0.6667000  0.3334000  0.5000000  )
         2           Al  tau(   2) = (  0.3333000  0.6666000  0.0000000  )
         3           N   tau(   3) = (  0.6667000  0.3334000  0.8820000  )
         4           N   tau(   4) = (  0.3333000  0.6666000  0.3820000  )

     number of k points=   172  Marzari-Vanderbilt smearing, width (Ry)=  0.0147
                       cart. coord. in units 2pi/alat
        k(    1) = (   0.0000000   0.0000000   0.0000000), wk =   0.0019841
        k(    2) = (   0.0000000   0.0000000   0.0874862), wk =   0.0039683
        k(    3) = (   0.0000000   0.0000000   0.1749723), wk =   0.0039683
        k(    4) = (   0.0000000   0.0000000   0.2624585), wk =   0.0039683
        k(    5) = (   0.0000000   0.0962250   0.0000000), wk =   0.0039683
        k(    6) = (   0.0000000   0.0962250   0.0874862), wk =   0.0079365
        k(    7) = (   0.0000000   0.0962250   0.1749723), wk =   0.0079365
        k(    8) = (   0.0000000   0.0962250   0.2624585), wk =   0.0079365
        k(    9) = (   0.0000000   0.1924501   0.0000000), wk =   0.0039683
        k(   10) = (   0.0000000   0.1924501   0.0874862), wk =   0.0079365
        k(   11) = (   0.0000000   0.1924501   0.1749723), wk =   0.0079365
        k(   12) = (   0.0000000   0.1924501   0.2624585), wk =   0.0079365
        k(   13) = (   0.0000000   0.2886751   0.0000000), wk =   0.0039683
        k(   14) = (   0.0000000   0.2886751   0.0874862), wk =   0.0079365
        k(   15) = (   0.0000000   0.2886751   0.1749723), wk =   0.0079365
        k(   16) = (   0.0000000   0.2886751   0.2624585), wk =   0.0079365
        k(   17) = (   0.0000000   0.3849002   0.0000000), wk =   0.0039683
        k(   18) = (   0.0000000   0.3849002   0.0874862), wk =   0.0079365
        k(   19) = (   0.0000000   0.3849002   0.1749723), wk =   0.0079365
        k(   20) = (   0.0000000   0.3849002   0.2624585), wk =   0.0079365
        k(   21) = (   0.0000000   0.4811252   0.0000000), wk =   0.0039683
        k(   22) = (   0.0000000   0.4811252   0.0874862), wk =   0.0079365
        k(   23) = (   0.0000000   0.4811252   0.1749723), wk =   0.0079365
        k(   24) = (   0.0000000   0.4811252   0.2624585), wk =   0.0079365
        k(   25) = (   0.0000000  -0.5773503   0.0000000), wk =   0.0019841
        k(   26) = (   0.0000000  -0.5773503   0.0874862), wk =   0.0039683
        k(   27) = (   0.0000000  -0.5773503   0.1749723), wk =   0.0039683
        k(   28) = (   0.0000000  -0.5773503   0.2624585), wk =   0.0039683
        k(   29) = (   0.0833333   0.1443376   0.0000000), wk =   0.0079365
        k(   30) = (   0.0833333   0.1443376   0.0874862), wk =   0.0158730
        k(   31) = (   0.0833333   0.1443376   0.1749723), wk =   0.0158730
        k(   32) = (   0.0833333   0.1443376   0.2624585), wk =   0.0158730
        k(   33) = (   0.0833333   0.2405626   0.0000000), wk =   0.0079365
        k(   34) = (   0.0833333   0.2405626   0.0874862), wk =   0.0158730
        k(   35) = (   0.0833333   0.2405626   0.1749723), wk =   0.0158730
        k(   36) = (   0.0833333   0.2405626   0.2624585), wk =   0.0158730
        k(   37) = (   0.0833333   0.3367877   0.0000000), wk =   0.0079365
        k(   38) = (   0.0833333   0.3367877   0.0874862), wk =   0.0158730
        k(   39) = (   0.0833333   0.3367877   0.1749723), wk =   0.0158730
        k(   40) = (   0.0833333   0.3367877   0.2624585), wk =   0.0158730
        k(   41) = (   0.0833333   0.4330127   0.0000000), wk =   0.0079365
        k(   42) = (   0.0833333   0.4330127   0.0874862), wk =   0.0158730
        k(   43) = (   0.0833333   0.4330127   0.1749723), wk =   0.0158730
        k(   44) = (   0.0833333   0.4330127   0.2624585), wk =   0.0158730
        k(   45) = (   0.0833333   0.5292377   0.0000000), wk =   0.0079365
        k(   46) = (   0.0833333   0.5292377   0.0874862), wk =   0.0158730
        k(   47) = (   0.0833333   0.5292377   0.1749723), wk =   0.0158730
        k(   48) = (   0.0833333   0.5292377   0.2624585), wk =   0.0158730
        k(   49) = (   0.1666667   0.2886751   0.0000000), wk =   0.0079365
        k(   50) = (   0.1666667   0.2886751   0.0874862), wk =   0.0158730
        k(   51) = (   0.1666667   0.2886751   0.1749723), wk =   0.0158730
        k(   52) = (   0.1666667   0.2886751   0.2624585), wk =   0.0158730
        k(   53) = (   0.1666667   0.3849002   0.0000000), wk =   0.0079365
        k(   54) = (   0.1666667   0.3849002   0.0874862), wk =   0.0158730
        k(   55) = (   0.1666667   0.3849002   0.1749723), wk =   0.0158730
        k(   56) = (   0.1666667   0.3849002   0.2624585), wk =   0.0158730
        k(   57) = (   0.1666667   0.4811252   0.0000000), wk =   0.0079365
        k(   58) = (   0.1666667   0.4811252   0.0874862), wk =   0.0158730
        k(   59) = (   0.1666667   0.4811252   0.1749723), wk =   0.0158730
        k(   60) = (   0.1666667   0.4811252   0.2624585), wk =   0.0158730
        k(   61) = (   0.1666667   0.5773503   0.0000000), wk =   0.0039683
        k(   62) = (   0.1666667   0.5773503   0.0874862), wk =   0.0079365
        k(   63) = (   0.1666667   0.5773503   0.1749723), wk =   0.0079365
        k(   64) = (   0.1666667   0.5773503   0.2624585), wk =   0.0079365
        k(   65) = (   0.2500000   0.4330127   0.0000000), wk =   0.0079365
        k(   66) = (   0.2500000   0.4330127   0.0874862), wk =   0.0158730
        k(   67) = (   0.2500000   0.4330127   0.1749723), wk =   0.0158730
        k(   68) = (   0.2500000   0.4330127   0.2624585), wk =   0.0158730
        k(   69) = (   0.2500000   0.5292377   0.0000000), wk =   0.0079365
        k(   70) = (   0.2500000   0.5292377   0.0874862), wk =   0.0158730
        k(   71) = (   0.2500000   0.5292377   0.1749723), wk =   0.0158730
        k(   72) = (   0.2500000   0.5292377   0.2624585), wk =   0.0158730
        k(   73) = (   0.3333333   0.5773503   0.0000000), wk =   0.0039683
        k(   74) = (   0.3333333   0.5773503   0.0874862), wk =   0.0079365
        k(   75) = (   0.3333333   0.5773503   0.1749723), wk =   0.0079365
        k(   76) = (   0.3333333   0.5773503   0.2624585), wk =   0.0079365
        k(   77) = (  -0.0833333   0.0481125   0.0000000), wk =   0.0079365
        k(   78) = (  -0.0833333   0.0481125   0.0874862), wk =   0.0158730
        k(   79) = (  -0.0833333   0.0481125   0.1749723), wk =   0.0158730
        k(   80) = (  -0.0833333   0.0481125   0.2624585), wk =   0.0158730
        k(   81) = (  -0.1666667   0.0962250   0.0000000), wk =   0.0079365
        k(   82) = (  -0.1666667   0.0962250   0.0874862), wk =   0.0158730
        k(   83) = (  -0.1666667   0.0962250   0.1749723), wk =   0.0158730
        k(   84) = (  -0.1666667   0.0962250   0.2624585), wk =   0.0158730
        k(   85) = (  -0.2500000   0.1443376   0.0000000), wk =   0.0079365
        k(   86) = (  -0.2500000   0.1443376   0.0874862), wk =   0.0158730
        k(   87) = (  -0.2500000   0.1443376   0.1749723), wk =   0.0158730
        k(   88) = (  -0.2500000   0.1443376   0.2624585), wk =   0.0158730
        k(   89) = (  -0.3333333   0.1924501   0.0000000), wk =   0.0079365
        k(   90) = (  -0.3333333   0.1924501   0.0874862), wk =   0.0158730
        k(   91) = (  -0.3333333   0.1924501   0.1749723), wk =   0.0158730
        k(   92) = (  -0.3333333   0.1924501   0.2624585), wk =   0.0158730
        k(   93) = (  -0.4166667   0.2405626   0.0000000), wk =   0.0079365
        k(   94) = (  -0.4166667   0.2405626   0.0874862), wk =   0.0158730
        k(   95) = (  -0.4166667   0.2405626   0.1749723), wk =   0.0158730
        k(   96) = (  -0.4166667   0.2405626   0.2624585), wk =   0.0158730
        k(   97) = (   0.5000000  -0.2886751   0.0000000), wk =   0.0039683
        k(   98) = (   0.5000000  -0.2886751   0.0874862), wk =   0.0079365
        k(   99) = (   0.5000000  -0.2886751   0.1749723), wk =   0.0079365
        k(  100) = (   0.5000000  -0.2886751   0.2624585), wk =   0.0079365
        k(  101) = (   0.1666667   0.0000000   0.0000000), wk =   0.0039683
        k(  102) = (   0.1666667   0.0000000   0.0874862), wk =   0.0079365
        k(  103) = (   0.1666667   0.0000000   0.1749723), wk =   0.0079365
        k(  104) = (   0.1666667   0.0000000   0.2624585), wk =   0.0079365
        k(  105) = (  -0.1666667   0.1924501   0.0000000), wk =   0.0079365
        k(  106) = (   0.2500000   0.0481125   0.0000000), wk =   0.0079365
        k(  107) = (  -0.1666667   0.1924501   0.0874862), wk =   0.0158730
        k(  108) = (   0.2500000   0.0481125   0.0874862), wk =   0.0158730
        k(  109) = (  -0.1666667   0.1924501   0.1749723), wk =   0.0158730
        k(  110) = (   0.2500000   0.0481125   0.1749723), wk =   0.0158730
        k(  111) = (  -0.1666667   0.1924501   0.2624585), wk =   0.0158730
        k(  112) = (   0.2500000   0.0481125   0.2624585), wk =   0.0158730
        k(  113) = (  -0.2500000   0.2405626   0.0000000), wk =   0.0079365
        k(  114) = (   0.3333333   0.0962250   0.0000000), wk =   0.0079365
        k(  115) = (  -0.2500000   0.2405626   0.0874862), wk =   0.0158730
        k(  116) = (   0.3333333   0.0962250   0.0874862), wk =   0.0158730
        k(  117) = (  -0.2500000   0.2405626   0.1749723), wk =   0.0158730
        k(  118) = (   0.3333333   0.0962250   0.1749723), wk =   0.0158730
        k(  119) = (  -0.2500000   0.2405626   0.2624585), wk =   0.0158730
        k(  120) = (   0.3333333   0.0962250   0.2624585), wk =   0.0158730
        k(  121) = (  -0.3333333   0.2886751   0.0000000), wk =   0.0079365
        k(  122) = (   0.4166667   0.1443376   0.0000000), wk =   0.0079365
        k(  123) = (  -0.3333333   0.2886751   0.0874862), wk =   0.0158730
        k(  124) = (   0.4166667   0.1443376   0.0874862), wk =   0.0158730
        k(  125) = (  -0.3333333   0.2886751   0.1749723), wk =   0.0158730
        k(  126) = (   0.4166667   0.1443376   0.1749723), wk =   0.0158730
        k(  127) = (  -0.3333333   0.2886751   0.2624585), wk =   0.0158730
        k(  128) = (   0.4166667   0.1443376   0.2624585), wk =   0.0158730
        k(  129) = (  -0.4166667   0.3367877   0.0000000), wk =   0.0079365
        k(  130) = (   0.5000000   0.1924501   0.0000000), wk =   0.0079365
        k(  131) = (  -0.4166667   0.3367877   0.0874862), wk =   0.0158730
        k(  132) = (   0.5000000   0.1924501   0.0874862), wk =   0.0158730
        k(  133) = (  -0.4166667   0.3367877   0.1749723), wk =   0.0158730
        k(  134) = (   0.5000000   0.1924501   0.1749723), wk =   0.0158730
        k(  135) = (  -0.4166667   0.3367877   0.2624585), wk =   0.0158730
        k(  136) = (   0.5000000   0.1924501   0.2624585), wk =   0.0158730
        k(  137) = (   0.3333333   0.0000000   0.0000000), wk =   0.0039683
        k(  138) = (   0.3333333   0.0000000   0.0874862), wk =   0.0079365
        k(  139) = (   0.3333333   0.0000000   0.1749723), wk =   0.0079365
        k(  140) = (   0.3333333   0.0000000   0.2624585), wk =   0.0079365
        k(  141) = (  -0.2500000   0.3367877   0.0000000), wk =   0.0079365
        k(  142) = (   0.4166667   0.0481125   0.0000000), wk =   0.0079365
        k(  143) = (  -0.2500000   0.3367877   0.0874862), wk =   0.0158730
        k(  144) = (   0.4166667   0.0481125   0.0874862), wk =   0.0158730
        k(  145) = (  -0.2500000   0.3367877   0.1749723), wk =   0.0158730
        k(  146) = (   0.4166667   0.0481125   0.1749723), wk =   0.0158730
        k(  147) = (  -0.2500000   0.3367877   0.2624585), wk =   0.0158730
        k(  148) = (   0.4166667   0.0481125   0.2624585), wk =   0.0158730
        k(  149) = (  -0.3333333   0.3849002   0.0000000), wk =   0.0079365
        k(  150) = (   0.5000000   0.0962250   0.0000000), wk =   0.0079365
        k(  151) = (  -0.3333333   0.3849002   0.0874862), wk =   0.0158730
        k(  152) = (   0.5000000   0.0962250   0.0874862), wk =   0.0158730
        k(  153) = (  -0.3333333   0.3849002   0.1749723), wk =   0.0158730
        k(  154) = (   0.5000000   0.0962250   0.1749723), wk =   0.0158730
        k(  155) = (  -0.3333333   0.3849002   0.2624585), wk =   0.0158730
        k(  156) = (   0.5000000   0.0962250   0.2624585), wk =   0.0158730
        k(  157) = (  -0.4166667   0.4330127   0.0000000), wk =   0.0079365
        k(  158) = (  -0.4166667   0.4330127   0.0874862), wk =   0.0158730
        k(  159) = (  -0.4166667   0.4330127   0.1749723), wk =   0.0158730
        k(  160) = (  -0.4166667   0.4330127   0.2624585), wk =   0.0158730
        k(  161) = (   0.5000000   0.0000000   0.0000000), wk =   0.0039683
        k(  162) = (   0.5000000   0.0000000   0.0874862), wk =   0.0079365
        k(  163) = (   0.5000000   0.0000000   0.1749723), wk =   0.0079365
        k(  164) = (   0.5000000   0.0000000   0.2624585), wk =   0.0079365
        k(  165) = (  -0.3333333   0.4811252   0.0000000), wk =   0.0079365
        k(  166) = (   0.5833333   0.0481125   0.0000000), wk =   0.0079365
        k(  167) = (  -0.3333333   0.4811252   0.0874862), wk =   0.0158730
        k(  168) = (   0.5833333   0.0481125   0.0874862), wk =   0.0158730
        k(  169) = (  -0.3333333   0.4811252   0.1749723), wk =   0.0158730
        k(  170) = (   0.5833333   0.0481125   0.1749723), wk =   0.0158730
        k(  171) = (  -0.3333333   0.4811252   0.2624585), wk =   0.0158730
        k(  172) = (   0.5833333   0.0481125   0.2624585), wk =   0.0158730

                       cryst. coord.
        k(    1) = (   0.0000000   0.0000000   0.0000000), wk =   0.0019841
        k(    2) = (   0.0000000   0.0000000   0.1428571), wk =   0.0039683
        k(    3) = (   0.0000000   0.0000000   0.2857143), wk =   0.0039683
        k(    4) = (   0.0000000   0.0000000   0.4285714), wk =   0.0039683
        k(    5) = (   0.0000000   0.0833333   0.0000000), wk =   0.0039683
        k(    6) = (   0.0000000   0.0833333   0.1428571), wk =   0.0079365
        k(    7) = (   0.0000000   0.0833333   0.2857143), wk =   0.0079365
        k(    8) = (   0.0000000   0.0833333   0.4285714), wk =   0.0079365
        k(    9) = (   0.0000000   0.1666667   0.0000000), wk =   0.0039683
        k(   10) = (   0.0000000   0.1666667   0.1428571), wk =   0.0079365
        k(   11) = (   0.0000000   0.1666667   0.2857143), wk =   0.0079365
        k(   12) = (   0.0000000   0.1666667   0.4285714), wk =   0.0079365
        k(   13) = (   0.0000000   0.2500000   0.0000000), wk =   0.0039683
        k(   14) = (   0.0000000   0.2500000   0.1428571), wk =   0.0079365
        k(   15) = (   0.0000000   0.2500000   0.2857143), wk =   0.0079365
        k(   16) = (   0.0000000   0.2500000   0.4285714), wk =   0.0079365
        k(   17) = (   0.0000000   0.3333333   0.0000000), wk =   0.0039683
        k(   18) = (   0.0000000   0.3333333   0.1428571), wk =   0.0079365
        k(   19) = (   0.0000000   0.3333333   0.2857143), wk =   0.0079365
        k(   20) = (   0.0000000   0.3333333   0.4285714), wk =   0.0079365
        k(   21) = (   0.0000000   0.4166667   0.0000000), wk =   0.0039683
        k(   22) = (   0.0000000   0.4166667   0.1428571), wk =   0.0079365
        k(   23) = (   0.0000000   0.4166667   0.2857143), wk =   0.0079365
        k(   24) = (   0.0000000   0.4166667   0.4285714), wk =   0.0079365
        k(   25) = (   0.0000000  -0.5000000   0.0000000), wk =   0.0019841
        k(   26) = (   0.0000000  -0.5000000   0.1428571), wk =   0.0039683
        k(   27) = (   0.0000000  -0.5000000   0.2857143), wk =   0.0039683
        k(   28) = (   0.0000000  -0.5000000   0.4285714), wk =   0.0039683
        k(   29) = (   0.0833333   0.0833333   0.0000000), wk =   0.0079365
        k(   30) = (   0.0833333   0.0833333   0.1428571), wk =   0.0158730
        k(   31) = (   0.0833333   0.0833333   0.2857143), wk =   0.0158730
        k(   32) = (   0.0833333   0.0833333   0.4285714), wk =   0.0158730
        k(   33) = (   0.0833333   0.1666667   0.0000000), wk =   0.0079365
        k(   34) = (   0.0833333   0.1666667   0.1428571), wk =   0.0158730
        k(   35) = (   0.0833333   0.1666667   0.2857143), wk =   0.0158730
        k(   36) = (   0.0833333   0.1666667   0.4285714), wk =   0.0158730
        k(   37) = (   0.0833333   0.2500000   0.0000000), wk =   0.0079365
        k(   38) = (   0.0833333   0.2500000   0.1428571), wk =   0.0158730
        k(   39) = (   0.0833333   0.2500000   0.2857143), wk =   0.0158730
        k(   40) = (   0.0833333   0.2500000   0.4285714), wk =   0.0158730
        k(   41) = (   0.0833333   0.3333333   0.0000000), wk =   0.0079365
        k(   42) = (   0.0833333   0.3333333   0.1428571), wk =   0.0158730
        k(   43) = (   0.0833333   0.3333333   0.2857143), wk =   0.0158730
        k(   44) = (   0.0833333   0.3333333   0.4285714), wk =   0.0158730
        k(   45) = (   0.0833333   0.4166667   0.0000000), wk =   0.0079365
        k(   46) = (   0.0833333   0.4166667   0.1428571), wk =   0.0158730
        k(   47) = (   0.0833333   0.4166667   0.2857143), wk =   0.0158730
        k(   48) = (   0.0833333   0.4166667   0.4285714), wk =   0.0158730
        k(   49) = (   0.1666667   0.1666667   0.0000000), wk =   0.0079365
        k(   50) = (   0.1666667   0.1666667   0.1428571), wk =   0.0158730
        k(   51) = (   0.1666667   0.1666667   0.2857143), wk =   0.0158730
        k(   52) = (   0.1666667   0.1666667   0.4285714), wk =   0.0158730
        k(   53) = (   0.1666667   0.2500000   0.0000000), wk =   0.0079365
        k(   54) = (   0.1666667   0.2500000   0.1428571), wk =   0.0158730
        k(   55) = (   0.1666667   0.2500000   0.2857143), wk =   0.0158730
        k(   56) = (   0.1666667   0.2500000   0.4285714), wk =   0.0158730
        k(   57) = (   0.1666667   0.3333333   0.0000000), wk =   0.0079365
        k(   58) = (   0.1666667   0.3333333   0.1428571), wk =   0.0158730
        k(   59) = (   0.1666667   0.3333333   0.2857143), wk =   0.0158730
        k(   60) = (   0.1666667   0.3333333   0.4285714), wk =   0.0158730
        k(   61) = (   0.1666667   0.4166667   0.0000000), wk =   0.0039683
        k(   62) = (   0.1666667   0.4166667   0.1428571), wk =   0.0079365
        k(   63) = (   0.1666667   0.4166667   0.2857143), wk =   0.0079365
        k(   64) = (   0.1666667   0.4166667   0.4285714), wk =   0.0079365
        k(   65) = (   0.2500000   0.2500000   0.0000000), wk =   0.0079365
        k(   66) = (   0.2500000   0.2500000   0.1428571), wk =   0.0158730
        k(   67) = (   0.2500000   0.2500000   0.2857143), wk =   0.0158730
        k(   68) = (   0.2500000   0.2500000   0.4285714), wk =   0.0158730
        k(   69) = (   0.2500000   0.3333333   0.0000000), wk =   0.0079365
        k(   70) = (   0.2500000   0.3333333   0.1428571), wk =   0.0158730
        k(   71) = (   0.2500000   0.3333333   0.2857143), wk =   0.0158730
        k(   72) = (   0.2500000   0.3333333   0.4285714), wk =   0.0158730
        k(   73) = (   0.3333333   0.3333333   0.0000000), wk =   0.0039683
        k(   74) = (   0.3333333   0.3333333   0.1428571), wk =   0.0079365
        k(   75) = (   0.3333333   0.3333333   0.2857143), wk =   0.0079365
        k(   76) = (   0.3333333   0.3333333   0.4285714), wk =   0.0079365
        k(   77) = (  -0.0833333   0.0833333   0.0000000), wk =   0.0079365
        k(   78) = (  -0.0833333   0.0833333   0.1428571), wk =   0.0158730
        k(   79) = (  -0.0833333   0.0833333   0.2857143), wk =   0.0158730
        k(   80) = (  -0.0833333   0.0833333   0.4285714), wk =   0.0158730
        k(   81) = (  -0.1666667   0.1666667   0.0000000), wk =   0.0079365
        k(   82) = (  -0.1666667   0.1666667   0.1428571), wk =   0.0158730
        k(   83) = (  -0.1666667   0.1666667   0.2857143), wk =   0.0158730
        k(   84) = (  -0.1666667   0.1666667   0.4285714), wk =   0.0158730
        k(   85) = (  -0.2500000   0.2500000   0.0000000), wk =   0.0079365
        k(   86) = (  -0.2500000   0.2500000   0.1428571), wk =   0.0158730
        k(   87) = (  -0.2500000   0.2500000   0.2857143), wk =   0.0158730
        k(   88) = (  -0.2500000   0.2500000   0.4285714), wk =   0.0158730
        k(   89) = (  -0.3333333   0.3333333   0.0000000), wk =   0.0079365
        k(   90) = (  -0.3333333   0.3333333   0.1428571), wk =   0.0158730
        k(   91) = (  -0.3333333   0.3333333   0.2857143), wk =   0.0158730
        k(   92) = (  -0.3333333   0.3333333   0.4285714), wk =   0.0158730
        k(   93) = (  -0.4166667   0.4166667   0.0000000), wk =   0.0079365
        k(   94) = (  -0.4166667   0.4166667   0.1428571), wk =   0.0158730
        k(   95) = (  -0.4166667   0.4166667   0.2857143), wk =   0.0158730
        k(   96) = (  -0.4166667   0.4166667   0.4285714), wk =   0.0158730
        k(   97) = (   0.5000000  -0.5000000   0.0000000), wk =   0.0039683
        k(   98) = (   0.5000000  -0.5000000   0.1428571), wk =   0.0079365
        k(   99) = (   0.5000000  -0.5000000   0.2857143), wk =   0.0079365
        k(  100) = (   0.5000000  -0.5000000   0.4285714), wk =   0.0079365
        k(  101) = (   0.1666667  -0.0833333   0.0000000), wk =   0.0039683
        k(  102) = (   0.1666667  -0.0833333   0.1428571), wk =   0.0079365
        k(  103) = (   0.1666667  -0.0833333   0.2857143), wk =   0.0079365
        k(  104) = (   0.1666667  -0.0833333   0.4285714), wk =   0.0079365
        k(  105) = (  -0.1666667   0.2500000   0.0000000), wk =   0.0079365
        k(  106) = (   0.2500000  -0.0833333   0.0000000), wk =   0.0079365
        k(  107) = (  -0.1666667   0.2500000   0.1428571), wk =   0.0158730
        k(  108) = (   0.2500000  -0.0833333   0.1428571), wk =   0.0158730
        k(  109) = (  -0.1666667   0.2500000   0.2857143), wk =   0.0158730
        k(  110) = (   0.2500000  -0.0833333   0.2857143), wk =   0.0158730
        k(  111) = (  -0.1666667   0.2500000   0.4285714), wk =   0.0158730
        k(  112) = (   0.2500000  -0.0833333   0.4285714), wk =   0.0158730
        k(  113) = (  -0.2500000   0.3333333   0.0000000), wk =   0.0079365
        k(  114) = (   0.3333333  -0.0833333   0.0000000), wk =   0.0079365
        k(  115) = (  -0.2500000   0.3333333   0.1428571), wk =   0.0158730
        k(  116) = (   0.3333333  -0.0833333   0.1428571), wk =   0.0158730
        k(  117) = (  -0.2500000   0.3333333   0.2857143), wk =   0.0158730
        k(  118) = (   0.3333333  -0.0833333   0.2857143), wk =   0.0158730
        k(  119) = (  -0.2500000   0.3333333   0.4285714), wk =   0.0158730
        k(  120) = (   0.3333333  -0.0833333   0.4285714), wk =   0.0158730
        k(  121) = (  -0.3333333   0.4166667   0.0000000), wk =   0.0079365
        k(  122) = (   0.4166667  -0.0833333   0.0000000), wk =   0.0079365
        k(  123) = (  -0.3333333   0.4166667   0.1428571), wk =   0.0158730
        k(  124) = (   0.4166667  -0.0833333   0.1428571), wk =   0.0158730
        k(  125) = (  -0.3333333   0.4166667   0.2857143), wk =   0.0158730
        k(  126) = (   0.4166667  -0.0833333   0.2857143), wk =   0.0158730
        k(  127) = (  -0.3333333   0.4166667   0.4285714), wk =   0.0158730
        k(  128) = (   0.4166667  -0.0833333   0.4285714), wk =   0.0158730
        k(  129) = (  -0.4166667   0.5000000   0.0000000), wk =   0.0079365
        k(  130) = (   0.5000000  -0.0833333   0.0000000), wk =   0.0079365
        k(  131) = (  -0.4166667   0.5000000   0.1428571), wk =   0.0158730
        k(  132) = (   0.5000000  -0.0833333   0.1428571), wk =   0.0158730
        k(  133) = (  -0.4166667   0.5000000   0.2857143), wk =   0.0158730
        k(  134) = (   0.5000000  -0.0833333   0.2857143), wk =   0.0158730
        k(  135) = (  -0.4166667   0.5000000   0.4285714), wk =   0.0158730
        k(  136) = (   0.5000000  -0.0833333   0.4285714), wk =   0.0158730
        k(  137) = (   0.3333333  -0.1666667   0.0000000), wk =   0.0039683
        k(  138) = (   0.3333333  -0.1666667   0.1428571), wk =   0.0079365
        k(  139) = (   0.3333333  -0.1666667   0.2857143), wk =   0.0079365
        k(  140) = (   0.3333333  -0.1666667   0.4285714), wk =   0.0079365
        k(  141) = (  -0.2500000   0.4166667   0.0000000), wk =   0.0079365
        k(  142) = (   0.4166667  -0.1666667   0.0000000), wk =   0.0079365
        k(  143) = (  -0.2500000   0.4166667   0.1428571), wk =   0.0158730
        k(  144) = (   0.4166667  -0.1666667   0.1428571), wk =   0.0158730
        k(  145) = (  -0.2500000   0.4166667   0.2857143), wk =   0.0158730
        k(  146) = (   0.4166667  -0.1666667   0.2857143), wk =   0.0158730
        k(  147) = (  -0.2500000   0.4166667   0.4285714), wk =   0.0158730
        k(  148) = (   0.4166667  -0.1666667   0.4285714), wk =   0.0158730
        k(  149) = (  -0.3333333   0.5000000   0.0000000), wk =   0.0079365
        k(  150) = (   0.5000000  -0.1666667   0.0000000), wk =   0.0079365
        k(  151) = (  -0.3333333   0.5000000   0.1428571), wk =   0.0158730
        k(  152) = (   0.5000000  -0.1666667   0.1428571), wk =   0.0158730
        k(  153) = (  -0.3333333   0.5000000   0.2857143), wk =   0.0158730
        k(  154) = (   0.5000000  -0.1666667   0.2857143), wk =   0.0158730
        k(  155) = (  -0.3333333   0.5000000   0.4285714), wk =   0.0158730
        k(  156) = (   0.5000000  -0.1666667   0.4285714), wk =   0.0158730
        k(  157) = (  -0.4166667   0.5833333   0.0000000), wk =   0.0079365
        k(  158) = (  -0.4166667   0.5833333   0.1428571), wk =   0.0158730
        k(  159) = (  -0.4166667   0.5833333   0.2857143), wk =   0.0158730
        k(  160) = (  -0.4166667   0.5833333   0.4285714), wk =   0.0158730
        k(  161) = (   0.5000000  -0.2500000   0.0000000), wk =   0.0039683
        k(  162) = (   0.5000000  -0.2500000   0.1428571), wk =   0.0079365
        k(  163) = (   0.5000000  -0.2500000   0.2857143), wk =   0.0079365
        k(  164) = (   0.5000000  -0.2500000   0.4285714), wk =   0.0079365
        k(  165) = (  -0.3333333   0.5833333   0.0000000), wk =   0.0079365
        k(  166) = (   0.5833333  -0.2500000   0.0000000), wk =   0.0079365
        k(  167) = (  -0.3333333   0.5833333   0.1428571), wk =   0.0158730
        k(  168) = (   0.5833333  -0.2500000   0.1428571), wk =   0.0158730
        k(  169) = (  -0.3333333   0.5833333   0.2857143), wk =   0.0158730
        k(  170) = (   0.5833333  -0.2500000   0.2857143), wk =   0.0158730
        k(  171) = (  -0.3333333   0.5833333   0.4285714), wk =   0.0158730
        k(  172) = (   0.5833333  -0.2500000   0.4285714), wk =   0.0158730

     Dense  grid:    49621 G-vectors     FFT dimensions: (  45,  45,  72)

     Smooth grid:    17525 G-vectors     FFT dimensions: (  30,  30,  48)

     Dynamical RAM for                 wfc:       0.40 MB

     Dynamical RAM for     wfc (w. buffer):      69.37 MB

     Dynamical RAM for           str. fact:       1.51 MB

     Dynamical RAM for           local pot:       0.00 MB

     Dynamical RAM for          nlocal pot:       1.74 MB

     Dynamical RAM for                qrad:       3.52 MB

     Dynamical RAM for          rho,v,vnew:       5.61 MB

     Dynamical RAM for               rhoin:       1.87 MB

     Dynamical RAM for            rho*nmix:      12.11 MB

     Dynamical RAM for           G-vectors:       2.97 MB

     Dynamical RAM for          h,s,v(r/c):       0.03 MB

     Dynamical RAM for          <psi|beta>:       0.01 MB

     Dynamical RAM for                 psi:       0.80 MB

     Dynamical RAM for                hpsi:       0.80 MB

     Dynamical RAM for                spsi:       0.80 MB

     Dynamical RAM for      wfcinit/wfcrot:       1.08 MB

     Dynamical RAM for           addusdens:     142.35 MB

     Dynamical RAM for          addusforce:     144.25 MB

     Dynamical RAM for         addusstress:     152.19 MB

     Estimated static dynamical RAM per process >     106.54 MB

     Estimated max dynamical RAM per process >     258.73 MB

     Initial potential from superposition of free atoms

     starting charge   15.99561, renormalised to   16.00000
     Starting wfcs are   16 randomized atomic wfcs
     Checking if some PAW data can be deallocated... 

     total cpu time spent up to now is        7.9 secs

     Self-consistent Calculation

     iteration #  1     ecut=    60.00 Ry     beta= 0.40
     Davidson diagonalization with overlap
     ethr =  1.00E-02,  avg # of iterations =  4.4

     total cpu time spent up to now is       22.9 secs

     total energy              =    -117.48827472 Ry
     estimated scf accuracy    <       1.16238917 Ry

     iteration #  2     ecut=    60.00 Ry     beta= 0.40
     Davidson diagonalization with overlap
     ethr =  7.26E-03,  avg # of iterations =  2.0

     total cpu time spent up to now is       34.5 secs

     total energy              =    -117.72987280 Ry
     estimated scf accuracy    <       0.02450827 Ry

     iteration #  3     ecut=    60.00 Ry     beta= 0.40
     Davidson diagonalization with overlap
     ethr =  1.53E-04,  avg # of iterations =  7.6

     total cpu time spent up to now is       55.1 secs

     total energy              =    -117.73923897 Ry
     estimated scf accuracy    <       0.02197524 Ry

     iteration #  4     ecut=    60.00 Ry     beta= 0.40
     Davidson diagonalization with overlap
     ethr =  1.37E-04,  avg # of iterations =  3.8

     total cpu time spent up to now is       70.8 secs

     total energy              =    -117.73450849 Ry
     estimated scf accuracy    <       0.05731742 Ry

     iteration #  5     ecut=    60.00 Ry     beta= 0.40
     Davidson diagonalization with overlap
     ethr =  1.37E-04,  avg # of iterations =  2.5

     total cpu time spent up to now is       83.3 secs

     total energy              =    -117.74405271 Ry
     estimated scf accuracy    <       0.00057633 Ry

     iteration #  6     ecut=    60.00 Ry     beta= 0.40
     Davidson diagonalization with overlap
     ethr =  3.60E-06,  avg # of iterations =  6.2

     total cpu time spent up to now is      103.0 secs

     total energy              =    -117.74477612 Ry
     estimated scf accuracy    <       0.00021025 Ry

     iteration #  7     ecut=    60.00 Ry     beta= 0.40
     Davidson diagonalization with overlap
     ethr =  1.31E-06,  avg # of iterations =  1.4

     total cpu time spent up to now is      112.9 secs

     total energy              =    -117.74476637 Ry
     estimated scf accuracy    <       0.00005441 Ry

     iteration #  8     ecut=    60.00 Ry     beta= 0.40
     Davidson diagonalization with overlap
     ethr =  3.40E-07,  avg # of iterations =  1.9

     total cpu time spent up to now is      124.1 secs

     total energy              =    -117.74477577 Ry
     estimated scf accuracy    <       0.00000217 Ry

     iteration #  9     ecut=    60.00 Ry     beta= 0.40
     Davidson diagonalization with overlap
     ethr =  1.36E-08,  avg # of iterations =  3.6

     total cpu time spent up to now is      137.8 secs

     total energy              =    -117.74477681 Ry
     estimated scf accuracy    <       0.00000008 Ry

     iteration # 10     ecut=    60.00 Ry     beta= 0.40
     Davidson diagonalization with overlap
     ethr =  4.78E-10,  avg # of iterations =  3.7

     total cpu time spent up to now is      151.5 secs

     total energy              =    -117.74477681 Ry
     estimated scf accuracy    <       0.00000009 Ry

     iteration # 11     ecut=    60.00 Ry     beta= 0.40
     Davidson diagonalization with overlap
     ethr =  4.78E-10,  avg # of iterations =  2.2

     total cpu time spent up to now is      164.0 secs

     total energy              =    -117.74477682 Ry
     estimated scf accuracy    <       0.00000005 Ry

     iteration # 12     ecut=    60.00 Ry     beta= 0.40
     Davidson diagonalization with overlap
     ethr =  3.29E-10,  avg # of iterations =  1.0

     total cpu time spent up to now is      173.7 secs

     total energy              =    -117.74477681 Ry
     estimated scf accuracy    <       0.00000003 Ry

     iteration # 13     ecut=    60.00 Ry     beta= 0.40
     Davidson diagonalization with overlap
     ethr =  1.73E-10,  avg # of iterations =  2.1

     total cpu time spent up to now is      186.1 secs

     total energy              =    -117.74477682 Ry
     estimated scf accuracy    <          5.3E-09 Ry

     iteration # 14     ecut=    60.00 Ry     beta= 0.40
     Davidson diagonalization with overlap
     ethr =  3.30E-11,  avg # of iterations =  1.0

     total cpu time spent up to now is      195.7 secs

     total energy              =    -117.74477682 Ry
     estimated scf accuracy    <          2.4E-09 Ry

     iteration # 15     ecut=    60.00 Ry     beta= 0.40
     Davidson diagonalization with overlap
     ethr =  1.50E-11,  avg # of iterations =  1.0

     total cpu time spent up to now is      205.3 secs

     total energy              =    -117.74477682 Ry
     estimated scf accuracy    <          2.0E-09 Ry

     iteration # 16     ecut=    60.00 Ry     beta= 0.40
     Davidson diagonalization with overlap
     ethr =  1.24E-11,  avg # of iterations =  1.0

     total cpu time spent up to now is      214.8 secs

     total energy              =    -117.74477681 Ry
     estimated scf accuracy    <          8.6E-10 Ry

     iteration # 17     ecut=    60.00 Ry     beta= 0.40
     Davidson diagonalization with overlap
     ethr =  5.39E-12,  avg # of iterations =  1.2

     total cpu time spent up to now is      224.6 secs

     End of self-consistent calculation

          k = 0.0000 0.0000 0.0000 (  2189 PWs)   bands (ev):

    -8.1142  -5.9853   0.9591   6.3169   6.3187   6.9219   6.9229   7.0548
    11.3093  13.9588  17.6096  18.4091

     occupation numbers 
     1.0000   1.0000   1.0000   1.0000   1.0000   1.0000   1.0000   1.0000
     0.0000   0.0000   0.0000   0.0000

          k = 0.0000 0.0000 0.0875 (  2201 PWs)   bands (ev):

    -8.0368  -6.1398   1.2371   6.3453   6.3470   6.5854   6.8902   6.8914
    11.6993  14.0018  17.4798  18.3861

     occupation numbers 
     1.0000   1.0000   1.0000   1.0000   1.0000   1.0000   1.0000   1.0000
     0.0000   0.0000   0.0000   0.0000

          k = 0.0000 0.0000 0.1750 (  2172 PWs)   bands (ev):

    -7.8104  -6.5271   1.9894   5.5238   6.4257   6.4273   6.8028   6.8040
    12.5199  14.0558  17.2233  18.3795

     occupation numbers 
     1.0000   1.0000   1.0000   1.0000   1.0000   1.0000   1.0000   1.0000
     0.0000   0.0000   0.0000   0.0000

          k = 0.0000 0.0000 0.2625 (  2160 PWs)   bands (ev):

    -7.4533  -7.0029   3.0532   4.2781   6.5441   6.5457   6.6787   6.6800
    13.3402  13.8932  17.1772  17.5929

     occupation numbers 
     1.0000   1.0000   1.0000   1.0000   1.0000   1.0000   1.0000   1.0000
     0.0000   0.0000   0.0000   0.0000

          k = 0.0000 0.0962 0.0000 (  2199 PWs)   bands (ev):

    -8.0220  -5.9301   1.0683   5.8919   6.1976   6.5007   6.9058   7.0203
    11.7233  14.3324  17.2418  17.7595

     occupation numbers 
     1.0000   1.0000   1.0000   1.0000   1.0000   1.0000   1.0000   1.0000
     0.0000   0.0000   0.0000   0.0000

          k = 0.0000 0.0962 0.0875 (  2191 PWs)   bands (ev):

    -7.9454  -6.0804   1.3359   5.9228   6.2301   6.2454   6.8428   6.8678
    12.0415  14.3698  17.0700  17.7693

     occupation numbers 
     1.0000   1.0000   1.0000   1.0000   1.0000   1.0000   1.0000   1.0000
     0.0000   0.0000   0.0000   0.0000

          k = 0.0000 0.0962 0.1750 (  2187 PWs)   bands (ev):

    -7.7216  -6.4587   2.0593   5.3615   6.0623   6.3223   6.6279   6.7633
    12.7583  14.3923  16.7645  17.6661

     occupation numbers 
     1.0000   1.0000   1.0000   1.0000   1.0000   1.0000   1.0000   1.0000
     0.0000   0.0000   0.0000   0.0000

          k = 0.0000 0.0962 0.2625 (  2191 PWs)   bands (ev):

    -7.3691  -6.9256   3.0767   4.2315   6.2278   6.4266   6.4593   6.6165
    13.5385  14.1464  16.7499  17.1701

     occupation numbers 
     1.0000   1.0000   1.0000   1.0000   1.0000   1.0000   1.0000   1.0000
     0.0000   0.0000   0.0000   0.0000

          k = 0.0000 0.1925 0.0000 (  2187 PWs)   bands (ev):

    -7.7532  -5.7778   1.3903   4.8510   5.6013   5.9179   6.8300   6.9001
    12.5627  15.0099  16.1847  16.9573

     occupation numbers 
     1.0000   1.0000   1.0000   1.0000   1.0000   1.0000   1.0000   1.0000
     0.0000   0.0000   0.0000   0.0000

          k = 0.0000 0.1925 0.0875 (  2180 PWs)   bands (ev):

    -7.6794  -5.9153   1.6205   4.8973   5.4284   5.9580   6.7588   6.7788
    12.7222  15.0374  16.0663  16.9810

     occupation numbers 
     1.0000   1.0000   1.0000   1.0000   1.0000   1.0000   1.0000   1.0000
     0.0000   0.0000   0.0000   0.0000

          k = 0.0000 0.1925 0.1750 (  2183 PWs)   bands (ev):

    -7.4639  -6.2657   2.2368   4.7201   5.2629   6.0728   6.4017   6.6393
    13.1452  14.9000  15.9839  16.9962

     occupation numbers 
     1.0000   1.0000   1.0000   1.0000   1.0000   1.0000   1.0000   1.0000
     0.0000   0.0000   0.0000   0.0000

          k = 0.0000 0.1925 0.2625 (  2190 PWs)   bands (ev):

    -7.1261  -6.7044   3.0776   3.9698   5.5478   5.9610   6.2454   6.4472
    13.7284  14.3716  16.2875  16.7337

     occupation numbers 
     1.0000   1.0000   1.0000   1.0000   1.0000   1.0000   1.0000   1.0000
     0.0000   0.0000   0.0000   0.0000

          k = 0.0000 0.2887 0.0000 (  2186 PWs)   bands (ev):

    -7.3340  -5.5724   1.9067   3.6352   4.6041   5.5969   6.6510   6.6959
    13.2594  14.7007  15.1467  17.2840

     occupation numbers 
     1.0000   1.0000   1.0000   1.0000   1.0000   1.0000   1.0000   1.0000
     0.0000   0.0000   0.0000   0.0000

          k = 0.0000 0.2887 0.0875 (  2182 PWs)   bands (ev):

    -7.2653  -5.6878   2.0319   3.7504   4.4675   5.6437   6.5912   6.6317
    13.1493  14.6423  15.3717  17.2893

     occupation numbers 
     1.0000   1.0000   1.0000   1.0000   1.0000   1.0000   1.0000   1.0000
     0.0000   0.0000   0.0000   0.0000

          k = 0.0000 0.2887 0.1750 (  2192 PWs)   bands (ev):

    -7.0657  -5.9883   2.3609   3.7610   4.4757   5.7781   6.3144   6.4587
    13.0970  14.3727  15.8378  17.1911

     occupation numbers 
     1.0000   1.0000   1.0000   1.0000   1.0000   1.0000   1.0000   1.0000
     0.0000   0.0000   0.0000   0.0000

          k = 0.0000 0.2887 0.2625 (  2183 PWs)   bands (ev):

    -6.7559  -6.3751   2.8109   3.3156   5.0587   5.7579   5.9821   6.2241
    13.3543  13.8581  16.4005  16.8945

     occupation numbers 
     1.0000   1.0000   1.0000   1.0000   1.0000   1.0000   1.0000   1.0000
     0.0000   0.0000   0.0000   0.0000

          k = 0.0000 0.3849 0.0000 (  2198 PWs)   bands (ev):

    -6.8185  -5.3932   2.5402   2.5893   3.7054   5.3180   6.2279   6.5499
    13.3234  13.6563  15.0528  17.4697

     occupation numbers 
     1.0000   1.0000   1.0000   1.0000   1.0000   1.0000   1.0000   1.0000
     0.0000   0.0000   0.0000   0.0000

          k = 0.0000 0.3849 0.0875 (  2195 PWs)   bands (ev):

    -6.7584  -5.4771   2.1815   3.0538   3.6573   5.3692   6.2788   6.4761
    12.9456  13.7163  15.4600  17.3121

     occupation numbers 
     1.0000   1.0000   1.0000   1.0000   1.0000   1.0000   1.0000   1.0000
     0.0000   0.0000   0.0000   0.0000

          k = 0.0000 0.3849 0.1750 (  2193 PWs)   bands (ev):

    -6.5856  -5.7031   2.0559   2.9037   4.2045   5.5170   6.2219   6.2783
    12.5940  13.6220  15.9353  17.2063

     occupation numbers 
     1.0000   1.0000   1.0000   1.0000   1.0000   1.0000   1.0000   1.0000
     0.0000   0.0000   0.0000   0.0000

          k = 0.0000 0.3849 0.2625 (  2180 PWs)   bands (ev):

    -6.3223  -6.0085   2.1781   2.4941   5.0510   5.7429   5.7975   6.0133
    12.7143  13.1911  16.3658  16.9365

     occupation numbers 
     1.0000   1.0000   1.0000   1.0000   1.0000   1.0000   1.0000   1.0000
     0.0000   0.0000   0.0000   0.0000

          k = 0.0000 0.4811 0.0000 (  2202 PWs)   bands (ev):

    -6.3134  -5.3348   1.8127   3.0478   3.3142   5.1325   5.6626   6.4413
    12.9252  13.0705  15.2283  17.3307

     occupation numbers 
     1.0000   1.0000   1.0000   1.0000   1.0000   1.0000   1.0000   1.0000
     0.0000   0.0000   0.0000   0.0000

          k = 0.0000 0.4811 0.0875 (  2201 PWs)   bands (ev):

    -6.2663  -5.3828   1.6789   2.7596   3.7129   5.1862   5.8366   6.3616
    12.5231  13.1523  15.7235  16.9625

     occupation numbers 
     1.0000   1.0000   1.0000   1.0000   1.0000   1.0000   1.0000   1.0000
     0.0000   0.0000   0.0000   0.0000

          k = 0.0000 0.4811 0.1750 (  2186 PWs)   bands (ev):

    -6.1331  -5.5189   1.5277   2.2751   4.4608   5.3416   6.0468   6.1492
    12.1120  13.1183  16.0856  16.8593

     occupation numbers 
     1.0000   1.0000   1.0000   1.0000   1.0000   1.0000   1.0000   1.0000
     0.0000   0.0000   0.0000   0.0000

          k = 0.0000 0.4811 0.2625 (  2192 PWs)   bands (ev):

    -5.9376  -5.7176   1.5704   1.8370   5.2604   5.5797   5.8663   5.8673
    12.2143  12.7232  16.1599  16.7069

     occupation numbers 
     1.0000   1.0000   1.0000   1.0000   1.0000   1.0000   1.0000   1.0000
     0.0000   0.0000   0.0000   0.0000

          k = 0.0000-0.5774 0.0000 (  2192 PWs)   bands (ev):

    -6.0575  -5.3710   1.5508   2.8178   3.7228   5.0678   5.2970   6.4015
    12.6953  12.9329  15.2864  17.3142

     occupation numbers 
     1.0000   1.0000   1.0000   1.0000   1.0000   1.0000   1.0000   1.0000
     0.0000   0.0000   0.0000   0.0000

          k = 0.0000-0.5774 0.0875 (  2194 PWs)   bands (ev):

    -6.0201  -5.3990   1.4447   2.5476   4.0083   5.1223   5.5525   6.3199
    12.3433  12.9697  15.8248  16.8611

     occupation numbers 
     1.0000   1.0000   1.0000   1.0000   1.0000   1.0000   1.0000   1.0000
     0.0000   0.0000   0.0000   0.0000

          k = 0.0000-0.5774 0.1750 (  2200 PWs)   bands (ev):

    -5.9162  -5.4823   1.3037   2.0310   4.6610   5.2801   5.9191   6.1026
    11.9279  12.9431  16.1671  16.7086

     occupation numbers 
     1.0000   1.0000   1.0000   1.0000   1.0000   1.0000   1.0000   1.0000
     0.0000   0.0000   0.0000   0.0000

          k = 0.0000-0.5774 0.2625 (  2194 PWs)   bands (ev):

    -5.7692  -5.6132   1.3298   1.5829   5.3796   5.5222   5.8140   5.8847
    12.0300  12.5571  16.0608  16.5840

     occupation numbers 
     1.0000   1.0000   1.0000   1.0000   1.0000   1.0000   1.0000   1.0000
     0.0000   0.0000   0.0000   0.0000

          k = 0.0833 0.1443 0.0000 (  2183 PWs)   bands (ev):

    -7.8414  -5.8262   1.2840   5.2918   5.5587   6.2361   6.7831   6.9435
    12.3428  14.9249  16.5843  16.9379

     occupation numbers 
     1.0000   1.0000   1.0000   1.0000   1.0000   1.0000   1.0000   1.0000
     0.0000   0.0000   0.0000   0.0000

          k = 0.0833 0.1443 0.0875 (  2183 PWs)   bands (ev):

    -7.7666  -5.9680   1.5280   5.3513   5.4573   6.1410   6.7363   6.8110
    12.5561  14.9504  16.3954  16.9927

     occupation numbers 
     1.0000   1.0000   1.0000   1.0000   1.0000   1.0000   1.0000   1.0000
     0.0000   0.0000   0.0000   0.0000

          k = 0.0833 0.1443 0.1750 (  2182 PWs)   bands (ev):

    -7.5483  -6.3279   2.1846   4.9561   5.5220   6.0718   6.5336   6.6104
    13.0870  14.8726  16.1499  17.0398

     occupation numbers 
     1.0000   1.0000   1.0000   1.0000   1.0000   1.0000   1.0000   1.0000
     0.0000   0.0000   0.0000   0.0000

          k = 0.0833 0.1443 0.2625 (  2199 PWs)   bands (ev):

    -7.2055  -6.7762   3.0923   4.0801   5.7772   6.0330   6.3429   6.4469
    13.7531  14.4148  16.3261  16.7631

     occupation numbers 
     1.0000   1.0000   1.0000   1.0000   1.0000   1.0000   1.0000   1.0000
     0.0000   0.0000   0.0000   0.0000

          k = 0.0833 0.2406 0.0000 (  2181 PWs)   bands (ev):

    -7.4967  -5.6462   1.7038   4.2426   4.7388   5.8133   6.6006   6.7621
    13.1496  15.3699  15.4480  16.5488

     occupation numbers 
     1.0000   1.0000   1.0000   1.0000   1.0000   1.0000   1.0000   1.0000
     0.0000   0.0000   0.0000   0.0000

          k = 0.0833 0.2406 0.0875 (  2184 PWs)   bands (ev):

    -7.4259  -5.7707   1.8836   4.3027   4.6786   5.7614   6.5247   6.7101
    13.1793  15.1979  15.5953  16.5940

     occupation numbers 
     1.0000   1.0000   1.0000   1.0000   1.0000   1.0000   1.0000   1.0000
     0.0000   0.0000   0.0000   0.0000

          k = 0.0833 0.2406 0.1750 (  2190 PWs)   bands (ev):

    -7.2196  -6.0916   2.3560   4.1463   4.7930   5.7367   6.3229   6.4879
    13.3396  14.7760  15.9260  16.7069

     occupation numbers 
     1.0000   1.0000   1.0000   1.0000   1.0000   1.0000   1.0000   1.0000
     0.0000   0.0000   0.0000   0.0000

          k = 0.0833 0.2406 0.2625 (  2188 PWs)   bands (ev):

    -6.8980  -6.5001   2.9783   3.6170   5.2421   5.6941   6.0763   6.2043
    13.7024  14.2225  16.3436  16.6714

     occupation numbers 
     1.0000   1.0000   1.0000   1.0000   1.0000   1.0000   1.0000   1.0000
     0.0000   0.0000   0.0000   0.0000

          k = 0.0833 0.3368 0.0000 (  2191 PWs)   bands (ev):

    -7.0263  -5.4508   2.2995   3.1050   3.9739   5.3418   6.4096   6.4319
    13.6297  14.2137  15.1187  17.2353

     occupation numbers 
     1.0000   1.0000   1.0000   1.0000   1.0000   1.0000   1.0000   1.0000
     0.0000   0.0000   0.0000   0.0000

          k = 0.0833 0.3368 0.0875 (  2192 PWs)   bands (ev):

    -6.9624  -5.5484   2.2609   3.3008   3.9386   5.3315   6.2921   6.4976
    13.3489  14.2622  15.3622  17.2658

     occupation numbers 
     1.0000   1.0000   1.0000   1.0000   1.0000   1.0000   1.0000   1.0000
     0.0000   0.0000   0.0000   0.0000

          k = 0.0833 0.3368 0.1750 (  2185 PWs)   bands (ev):

    -6.7773  -5.8071   2.3073   3.2534   4.2965   5.3976   6.0566   6.4188
    13.0924  14.0793  15.8427  17.2648

     occupation numbers 
     1.0000   1.0000   1.0000   1.0000   1.0000   1.0000   1.0000   1.0000
     0.0000   0.0000   0.0000   0.0000

          k = 0.0833 0.3368 0.2625 (  2181 PWs)   bands (ev):

    -6.4929  -6.1489   2.5261   2.8788   5.0035   5.4986   5.8046   6.0765
    13.2125  13.6333  16.4324  16.9890

     occupation numbers 
     1.0000   1.0000   1.0000   1.0000   1.0000   1.0000   1.0000   1.0000
     0.0000   0.0000   0.0000   0.0000

          k = 0.0833 0.4330 0.0000 (  2186 PWs)   bands (ev):

    -6.5051  -5.3310   2.1916   3.0060   3.3273   4.9842   5.9321   6.2460
    13.1856  13.5884  15.2774  17.3218

     occupation numbers 
     1.0000   1.0000   1.0000   1.0000   1.0000   1.0000   1.0000   1.0000
     0.0000   0.0000   0.0000   0.0000

          k = 0.0833 0.4330 0.0875 (  2194 PWs)   bands (ev):

    -6.4522  -5.3941   2.0065   2.9387   3.6076   5.0112   6.0066   6.2198
    12.8698  13.6684  15.5775  17.1332

     occupation numbers 
     1.0000   1.0000   1.0000   1.0000   1.0000   1.0000   1.0000   1.0000
     0.0000   0.0000   0.0000   0.0000

          k = 0.0833 0.4330 0.1750 (  2189 PWs)   bands (ev):

    -6.3012  -5.5686   1.8409   2.5607   4.3107   5.1767   5.8294   6.2909
    12.5468  13.5770  15.9296  17.1870

     occupation numbers 
     1.0000   1.0000   1.0000   1.0000   1.0000   1.0000   1.0000   1.0000
     0.0000   0.0000   0.0000   0.0000

          k = 0.0833 0.4330 0.2625 (  2189 PWs)   bands (ev):

    -6.0753  -5.8138   1.8948   2.1602   4.9696   5.3836   5.6610   6.0912
    12.6547  13.1337  16.2993  16.9320

     occupation numbers 
     1.0000   1.0000   1.0000   1.0000   1.0000   1.0000   1.0000   1.0000
     0.0000   0.0000   0.0000   0.0000

          k = 0.0833 0.5292 0.0000 (  2196 PWs)   bands (ev):

    -6.0862  -5.3472   1.6857   2.9282   3.6654   4.7966   5.3946   6.1519
    12.7064  13.3644  15.4499  17.2675

     occupation numbers 
     1.0000   1.0000   1.0000   1.0000   1.0000   1.0000   1.0000   1.0000
     0.0000   0.0000   0.0000   0.0000

          k = 0.0833 0.5292 0.0875 (  2197 PWs)   bands (ev):

    -6.0472  -5.3788   1.5805   2.6542   3.9410   4.8811   5.6104   6.0810
    12.4689  13.3904  15.8375  16.8764

     occupation numbers 
     1.0000   1.0000   1.0000   1.0000   1.0000   1.0000   1.0000   1.0000
     0.0000   0.0000   0.0000   0.0000

          k = 0.0833 0.5292 0.1750 (  2189 PWs)   bands (ev):

    -5.9381  -5.4717   1.4413   2.1512   4.4585   5.1906   5.6638   6.1269
    12.1785  13.3102  16.1448  16.8277

     occupation numbers 
     1.0000   1.0000   1.0000   1.0000   1.0000   1.0000   1.0000   1.0000
     0.0000   0.0000   0.0000   0.0000

          k = 0.0833 0.5292 0.2625 (  2193 PWs)   bands (ev):

    -5.7825  -5.6149   1.4672   1.7151   4.9200   5.3174   5.7161   6.1121
    12.3158  12.8578  16.1676  16.7321

     occupation numbers 
     1.0000   1.0000   1.0000   1.0000   1.0000   1.0000   1.0000   1.0000
     0.0000   0.0000   0.0000   0.0000

          k = 0.1667 0.2887 0.0000 (  2187 PWs)   bands (ev):

    -7.0988  -5.4737   2.2052   3.6906   3.7058   5.4287   6.1848   6.5050
    13.8878  14.4330  15.6557  16.4264

     occupation numbers 
     1.0000   1.0000   1.0000   1.0000   1.0000   1.0000   1.0000   1.0000
     0.0000   0.0000   0.0000   0.0000

          k = 0.1667 0.2887 0.0875 (  2187 PWs)   bands (ev):

    -7.0336  -5.5760   2.2512   3.6293   3.9206   5.3124   6.1036   6.5501
    13.7539  14.3712  15.7969  16.4870

     occupation numbers 
     1.0000   1.0000   1.0000   1.0000   1.0000   1.0000   1.0000   1.0000
     0.0000   0.0000   0.0000   0.0000

          k = 0.1667 0.2887 0.1750 (  2184 PWs)   bands (ev):

    -6.8447  -5.8458   2.4114   3.4136   4.4709   5.1902   5.9021   6.4636
    13.5800  14.1760  16.1490  16.6204

     occupation numbers 
     1.0000   1.0000   1.0000   1.0000   1.0000   1.0000   1.0000   1.0000
     0.0000   0.0000   0.0000   0.0000

          k = 0.1667 0.2887 0.2625 (  2173 PWs)   bands (ev):

    -6.5535  -6.1996   2.6964   3.0632   5.0959   5.2250   5.7410   6.0753
    13.6287  13.8827  16.5489  16.7143

     occupation numbers 
     1.0000   1.0000   1.0000   1.0000   1.0000   1.0000   1.0000   1.0000
     0.0000   0.0000   0.0000   0.0000

          k = 0.1667 0.3849 0.0000 (  2179 PWs)   bands (ev):

    -6.6130  -5.3328   2.7374   2.8549   3.3110   4.8405   5.8218   6.1043
    13.4102  14.3621  15.5162  16.9916

     occupation numbers 
     1.0000   1.0000   1.0000   1.0000   1.0000   1.0000   1.0000   1.0000
     0.0000   0.0000   0.0000   0.0000

          k = 0.1667 0.3849 0.0875 (  2184 PWs)   bands (ev):

    -6.5572  -5.4047   2.4139   2.9228   3.7152   4.7344   5.7066   6.2593
    13.3874  14.2160  15.5725  17.0374

     occupation numbers 
     1.0000   1.0000   1.0000   1.0000   1.0000   1.0000   1.0000   1.0000
     0.0000   0.0000   0.0000   0.0000

          k = 0.1667 0.3849 0.1750 (  2182 PWs)   bands (ev):

    -6.3970  -5.6011   2.2188   2.7430   4.3719   4.7491   5.4623   6.3865
    13.3053  13.9209  15.8441  17.0798

     occupation numbers 
     1.0000   1.0000   1.0000   1.0000   1.0000   1.0000   1.0000   1.0000
     0.0000   0.0000   0.0000   0.0000

          k = 0.1667 0.3849 0.2625 (  2193 PWs)   bands (ev):

    -6.1554  -5.8719   2.2548   2.4679   4.6691   4.9195   5.5984   6.1537
    13.3390  13.5942  16.3178  16.8279

     occupation numbers 
     1.0000   1.0000   1.0000   1.0000   1.0000   1.0000   1.0000   1.0000
     0.0000   0.0000   0.0000   0.0000

          k = 0.1667 0.4811 0.0000 (  2186 PWs)   bands (ev):

    -6.1380  -5.3052   2.0621   3.0947   3.5641   4.3175   5.5524   5.6171
    12.6768  14.3259  15.7937  17.1319

     occupation numbers 
     1.0000   1.0000   1.0000   1.0000   1.0000   1.0000   1.0000   1.0000
     0.0000   0.0000   0.0000   0.0000

          k = 0.1667 0.4811 0.0875 (  2194 PWs)   bands (ev):

    -6.0961  -5.3437   1.9633   2.7954   3.8583   4.4111   5.4206   5.8622
    12.7044  14.2744  15.7331  16.9489

     occupation numbers 
     1.0000   1.0000   1.0000   1.0000   1.0000   1.0000   1.0000   1.0000
     0.0000   0.0000   0.0000   0.0000

          k = 0.1667 0.4811 0.1750 (  2194 PWs)   bands (ev):

    -5.9781  -5.4543   1.8180   2.3841   4.0297   4.9059   5.2146   6.2059
    12.7638  14.0054  15.8065  16.7157

     occupation numbers 
     1.0000   1.0000   1.0000   1.0000   1.0000   1.0000   1.0000   1.0000
     0.0000   0.0000   0.0000   0.0000

          k = 0.1667 0.4811 0.2625 (  2194 PWs)   bands (ev):

    -5.8075  -5.6197   1.8206   2.0247   4.2794   4.6404   5.7840   6.2174
    12.9822  13.4734  16.1213  16.5069

     occupation numbers 
     1.0000   1.0000   1.0000   1.0000   1.0000   1.0000   1.0000   1.0000
     0.0000   0.0000   0.0000   0.0000

          k = 0.1667 0.5774 0.0000 (  2198 PWs)   bands (ev):

    -5.8908  -5.3577   1.8158   3.0408   3.9838   4.1047   5.2159   5.5161
    12.4145  14.2610  15.9450  17.1249

     occupation numbers 
     1.0000   1.0000   1.0000   1.0000   1.0000   1.0000   1.0000   1.0000
     0.0000   0.0000   0.0000   0.0000

          k = 0.1667 0.5774 0.0875 (  2193 PWs)   bands (ev):

    -5.8596  -5.3770   1.7413   2.7709   3.8057   4.5859   5.2578   5.6252
    12.4561  14.2419  15.9266  16.7601

     occupation numbers 
     1.0000   1.0000   1.0000   1.0000   1.0000   1.0000   1.0000   1.0000
     0.0000   0.0000   0.0000   0.0000

          k = 0.1667 0.5774 0.1750 (  2198 PWs)   bands (ev):

    -5.7736  -5.4364   1.6259   2.2732   3.8715   4.9502   5.2784   6.0594
    12.5558  14.0270  16.0800  16.2122

     occupation numbers 
     1.0000   1.0000   1.0000   1.0000   1.0000   1.0000   1.0000   1.0000
     0.0000   0.0000   0.0000   0.0000

          k = 0.1667 0.5774 0.2625 (  2194 PWs)   bands (ev):

    -5.6551  -5.5337   1.6384   1.8585   4.1415   4.5311   5.9086   6.2200
    12.8406  13.4331  16.1272  16.2484

     occupation numbers 
     1.0000   1.0000   1.0000   1.0000   1.0000   1.0000   1.0000   1.0000
     0.0000   0.0000   0.0000   0.0000

          k = 0.2500 0.4330 0.0000 (  2171 PWs)   bands (ev):

    -6.1617  -5.2865   2.4216   2.9615   3.5170   4.2300   5.2245   5.6697
    12.6425  14.9199  15.9647  16.9628

     occupation numbers 
     1.0000   1.0000   1.0000   1.0000   1.0000   1.0000   1.0000   1.0000
     0.0000   0.0000   0.0000   0.0000

          k = 0.2500 0.4330 0.0875 (  2190 PWs)   bands (ev):

    -6.1185  -5.3282   2.4110   2.5708   4.0452   4.0727   5.1039   5.9122
    12.8171  14.6984  15.7863  16.8600

     occupation numbers 
     1.0000   1.0000   1.0000   1.0000   1.0000   1.0000   1.0000   1.0000
     0.0000   0.0000   0.0000   0.0000

          k = 0.2500 0.4330 0.1750 (  2195 PWs)   bands (ev):

    -5.9967  -5.4471   2.2190   2.3344   3.8583   4.5810   5.1038   6.2477
    13.1955  14.1409  15.7561  16.5332

     occupation numbers 
     1.0000   1.0000   1.0000   1.0000   1.0000   1.0000   1.0000   1.0000
     0.0000   0.0000   0.0000   0.0000

          k = 0.2500 0.4330 0.2625 (  2198 PWs)   bands (ev):

    -5.8194  -5.6225   2.1032   2.1842   3.9543   4.2654   5.7918   6.2473
    13.4945  13.7155  15.9077  16.1606

     occupation numbers 
     1.0000   1.0000   1.0000   1.0000   1.0000   1.0000   1.0000   1.0000
     0.0000   0.0000   0.0000   0.0000

          k = 0.2500 0.5292 0.0000 (  2195 PWs)   bands (ev):

    -5.7859  -5.3559   2.1221   3.1205   3.6366   4.1520   4.8731   5.1835
    12.1574  15.1141  16.3489  16.9477

     occupation numbers 
     1.0000   1.0000   1.0000   1.0000   1.0000   1.0000   1.0000   1.0000
     0.0000   0.0000   0.0000   0.0000

          k = 0.2500 0.5292 0.0875 (  2194 PWs)   bands (ev):

    -5.7590  -5.3699   2.1130   2.8330   3.4095   4.5623   4.7576   5.5063
    12.3920  15.0300  15.9606  16.6237

     occupation numbers 
     1.0000   1.0000   1.0000   1.0000   1.0000   1.0000   1.0000   1.0000
     0.0000   0.0000   0.0000   0.0000

          k = 0.2500 0.5292 0.1750 (  2203 PWs)   bands (ev):

    -5.6858  -5.4139   2.0498   2.4351   3.2492   4.2860   5.3937   6.0194
    12.9436  14.6311  15.5349  16.0132

     occupation numbers 
     1.0000   1.0000   1.0000   1.0000   1.0000   1.0000   1.0000   1.0000
     0.0000   0.0000   0.0000   0.0000

          k = 0.2500 0.5292 0.2625 (  2203 PWs)   bands (ev):

    -5.5870  -5.4892   2.0096   2.1357   3.4313   3.8247   6.0177   6.2579
    13.5065  14.0423  15.4326  15.6242

     occupation numbers 
     1.0000   1.0000   1.0000   1.0000   1.0000   1.0000   1.0000   1.0000
     0.0000   0.0000   0.0000   0.0000

          k = 0.3333 0.5774 0.0000 (  2199 PWs)   bands (ev):

    -5.5143  -5.5138   2.2071   3.2707   3.2715   4.5173   4.7071   4.7082
    11.9391  15.4345  16.7258  16.7270

     occupation numbers 
     1.0000   1.0000   1.0000   1.0000   1.0000   1.0000   1.0000   1.0000
     0.0000   0.0000   0.0000   0.0000

          k = 0.3333 0.5774 0.0875 (  2205 PWs)   bands (ev):

    -5.5062  -5.5057   2.2886   2.9781   2.9788   4.3439   5.0902   5.0912
    12.2361  15.3825  16.2538  16.2550

     occupation numbers 
     1.0000   1.0000   1.0000   1.0000   1.0000   1.0000   1.0000   1.0000
     0.0000   0.0000   0.0000   0.0000

          k = 0.3333 0.5774 0.1750 (  2208 PWs)   bands (ev):

    -5.4877  -5.4873   2.5283   2.5485   2.5490   3.9142   5.7397   5.7405
    12.9975  15.1806  15.4241  15.4251

     occupation numbers 
     1.0000   1.0000   1.0000   1.0000   1.0000   1.0000   1.0000   1.0000
     0.0000   0.0000   0.0000   0.0000

          k = 0.3333 0.5774 0.2625 (  2217 PWs)   bands (ev):

    -5.4726  -5.4725   2.2944   2.2946   2.9090   3.3943   6.1907   6.1910
    13.9292  14.7141  14.8506  14.8510

     occupation numbers 
     1.0000   1.0000   1.0000   1.0000   1.0000   1.0000   1.0000   1.0000
     0.0000   0.0000   0.0000   0.0000

          k =-0.0833 0.0481 0.0000 (  2199 PWs)   bands (ev):

    -8.0219  -5.9301   1.0683   5.8909   6.1988   6.4998   6.9066   7.0203
    11.7231  14.3324  17.2423  17.7591

     occupation numbers 
     1.0000   1.0000   1.0000   1.0000   1.0000   1.0000   1.0000   1.0000
     0.0000   0.0000   0.0000   0.0000

          k =-0.0833 0.0481 0.0875 (  2191 PWs)   bands (ev):

    -7.9454  -6.0804   1.3359   5.9219   6.2313   6.2447   6.8425   6.8687
    12.0413  14.3697  17.0705  17.7690

     occupation numbers 
     1.0000   1.0000   1.0000   1.0000   1.0000   1.0000   1.0000   1.0000
     0.0000   0.0000   0.0000   0.0000

          k =-0.0833 0.0481 0.1750 (  2187 PWs)   bands (ev):

    -7.7216  -6.4587   2.0593   5.3614   6.0612   6.3235   6.6273   6.7642
    12.7581  14.3923  16.7649  17.6661

     occupation numbers 
     1.0000   1.0000   1.0000   1.0000   1.0000   1.0000   1.0000   1.0000
     0.0000   0.0000   0.0000   0.0000

          k =-0.0833 0.0481 0.2625 (  2191 PWs)   bands (ev):

    -7.3691  -6.9256   3.0767   4.2315   6.2268   6.4257   6.4604   6.6176
    13.5383  14.1463  16.7501  17.1702

     occupation numbers 
     1.0000   1.0000   1.0000   1.0000   1.0000   1.0000   1.0000   1.0000
     0.0000   0.0000   0.0000   0.0000

          k =-0.1667 0.0962 0.0000 (  2187 PWs)   bands (ev):

    -7.7531  -5.7778   1.3904   4.8506   5.6002   5.9190   6.8310   6.9000
    12.5622  15.0099  16.1857  16.9569

     occupation numbers 
     1.0000   1.0000   1.0000   1.0000   1.0000   1.0000   1.0000   1.0000
     0.0000   0.0000   0.0000   0.0000

          k =-0.1667 0.0962 0.0875 (  2180 PWs)   bands (ev):

    -7.6793  -5.9154   1.6205   4.8969   5.4272   5.9591   6.7587   6.7798
    12.7217  15.0374  16.0672  16.9806

     occupation numbers 
     1.0000   1.0000   1.0000   1.0000   1.0000   1.0000   1.0000   1.0000
     0.0000   0.0000   0.0000   0.0000

          k =-0.1667 0.0962 0.1750 (  2183 PWs)   bands (ev):

    -7.4639  -6.2657   2.2367   4.7197   5.2620   6.0739   6.4016   6.6403
    13.1446  14.8999  15.9845  16.9960

     occupation numbers 
     1.0000   1.0000   1.0000   1.0000   1.0000   1.0000   1.0000   1.0000
     0.0000   0.0000   0.0000   0.0000

          k =-0.1667 0.0962 0.2625 (  2190 PWs)   bands (ev):

    -7.1261  -6.7044   3.0774   3.9695   5.5472   5.9606   6.2464   6.4482
    13.7278  14.3713  16.2879  16.7338

     occupation numbers 
     1.0000   1.0000   1.0000   1.0000   1.0000   1.0000   1.0000   1.0000
     0.0000   0.0000   0.0000   0.0000

          k =-0.2500 0.1443 0.0000 (  2186 PWs)   bands (ev):

    -7.3339  -5.5725   1.9068   3.6351   4.6029   5.5979   6.6507   6.6969
    13.2588  14.7015  15.1475  17.2839

     occupation numbers 
     1.0000   1.0000   1.0000   1.0000   1.0000   1.0000   1.0000   1.0000
     0.0000   0.0000   0.0000   0.0000

          k =-0.2500 0.1443 0.0875 (  2182 PWs)   bands (ev):

    -7.2652  -5.6879   2.0318   3.7505   4.4663   5.6446   6.5910   6.6327
    13.1488  14.6426  15.3725  17.2892

     occupation numbers 
     1.0000   1.0000   1.0000   1.0000   1.0000   1.0000   1.0000   1.0000
     0.0000   0.0000   0.0000   0.0000

          k =-0.2500 0.1443 0.1750 (  2192 PWs)   bands (ev):

    -7.0657  -5.9883   2.3607   3.7607   4.4751   5.7790   6.3144   6.4597
    13.0964  14.3724  15.8384  17.1909

     occupation numbers 
     1.0000   1.0000   1.0000   1.0000   1.0000   1.0000   1.0000   1.0000
     0.0000   0.0000   0.0000   0.0000

          k =-0.2500 0.1443 0.2625 (  2183 PWs)   bands (ev):

    -6.7558  -6.3751   2.8104   3.3150   5.0587   5.7580   5.9831   6.2251
    13.3536  13.8575  16.4009  16.8946

     occupation numbers 
     1.0000   1.0000   1.0000   1.0000   1.0000   1.0000   1.0000   1.0000
     0.0000   0.0000   0.0000   0.0000

          k =-0.3333 0.1925 0.0000 (  2198 PWs)   bands (ev):

    -6.8183  -5.3934   2.5404   2.5894   3.7040   5.3189   6.2272   6.5510
    13.3231  13.6576  15.0533  17.4698

     occupation numbers 
     1.0000   1.0000   1.0000   1.0000   1.0000   1.0000   1.0000   1.0000
     0.0000   0.0000   0.0000   0.0000

          k =-0.3333 0.1925 0.0875 (  2195 PWs)   bands (ev):

    -6.7583  -5.4772   2.1814   3.0540   3.6563   5.3701   6.2783   6.4771
    12.9460  13.7162  15.4605  17.3123

     occupation numbers 
     1.0000   1.0000   1.0000   1.0000   1.0000   1.0000   1.0000   1.0000
     0.0000   0.0000   0.0000   0.0000

          k =-0.3333 0.1925 0.1750 (  2193 PWs)   bands (ev):

    -6.5855  -5.7032   2.0556   2.9030   4.2047   5.5179   6.2218   6.2793
    12.5940  13.6212  15.9355  17.2072

     occupation numbers 
     1.0000   1.0000   1.0000   1.0000   1.0000   1.0000   1.0000   1.0000
     0.0000   0.0000   0.0000   0.0000

          k =-0.3333 0.1925 0.2625 (  2180 PWs)   bands (ev):

    -6.3222  -6.0085   2.1775   2.4933   5.0514   5.7438   5.7978   6.0142
    12.7137  13.1902  16.3660  16.9370

     occupation numbers 
     1.0000   1.0000   1.0000   1.0000   1.0000   1.0000   1.0000   1.0000
     0.0000   0.0000   0.0000   0.0000

          k =-0.4167 0.2406 0.0000 (  2202 PWs)   bands (ev):

    -6.3131  -5.3351   1.8131   3.0464   3.3147   5.1333   5.6615   6.4423
    12.9273  13.0698  15.2290  17.3299

     occupation numbers 
     1.0000   1.0000   1.0000   1.0000   1.0000   1.0000   1.0000   1.0000
     0.0000   0.0000   0.0000   0.0000

          k =-0.4167 0.2406 0.0875 (  2201 PWs)   bands (ev):

    -6.2660  -5.3831   1.6792   2.7584   3.7134   5.1871   5.8357   6.3626
    12.5245  13.1516  15.7243  16.9618

     occupation numbers 
     1.0000   1.0000   1.0000   1.0000   1.0000   1.0000   1.0000   1.0000
     0.0000   0.0000   0.0000   0.0000

          k =-0.4167 0.2406 0.1750 (  2186 PWs)   bands (ev):

    -6.1329  -5.5191   1.5275   2.2740   4.4615   5.3425   6.0464   6.1502
    12.1124  13.1172  16.0851  16.8605

     occupation numbers 
     1.0000   1.0000   1.0000   1.0000   1.0000   1.0000   1.0000   1.0000
     0.0000   0.0000   0.0000   0.0000

          k =-0.4167 0.2406 0.2625 (  2192 PWs)   bands (ev):

    -5.9374  -5.7176   1.5699   1.8361   5.2610   5.5806   5.8673   5.8675
    12.2136  12.7220  16.1599  16.7075

     occupation numbers 
     1.0000   1.0000   1.0000   1.0000   1.0000   1.0000   1.0000   1.0000
     0.0000   0.0000   0.0000   0.0000

          k = 0.5000-0.2887 0.0000 (  2192 PWs)   bands (ev):

    -6.0570  -5.3716   1.5514   2.8163   3.7237   5.0687   5.2955   6.4026
    12.6974  12.9321  15.2872  17.3131

     occupation numbers 
     1.0000   1.0000   1.0000   1.0000   1.0000   1.0000   1.0000   1.0000
     0.0000   0.0000   0.0000   0.0000

          k = 0.5000-0.2887 0.0875 (  2194 PWs)   bands (ev):

    -6.0196  -5.3995   1.4451   2.5462   4.0093   5.1232   5.5511   6.3209
    12.3449  12.9688  15.8259  16.8598

     occupation numbers 
     1.0000   1.0000   1.0000   1.0000   1.0000   1.0000   1.0000   1.0000
     0.0000   0.0000   0.0000   0.0000

          k = 0.5000-0.2887 0.1750 (  2200 PWs)   bands (ev):

    -5.9158  -5.4826   1.3037   2.0298   4.6621   5.2809   5.9184   6.1036
    11.9285  12.9420  16.1663  16.7101

     occupation numbers 
     1.0000   1.0000   1.0000   1.0000   1.0000   1.0000   1.0000   1.0000
     0.0000   0.0000   0.0000   0.0000

          k = 0.5000-0.2887 0.2625 (  2194 PWs)   bands (ev):

    -5.7690  -5.6132   1.3293   1.5820   5.3804   5.5231   5.8150   5.8849
    12.0293  12.5558  16.0606  16.5846

     occupation numbers 
     1.0000   1.0000   1.0000   1.0000   1.0000   1.0000   1.0000   1.0000
     0.0000   0.0000   0.0000   0.0000

          k = 0.1667 0.0000 0.0000 (  2183 PWs)   bands (ev):

    -7.8413  -5.8262   1.2840   5.2907   5.5591   6.2363   6.7840   6.9434
    12.3424  14.9249  16.5852  16.9377

     occupation numbers 
     1.0000   1.0000   1.0000   1.0000   1.0000   1.0000   1.0000   1.0000
     0.0000   0.0000   0.0000   0.0000

          k = 0.1667 0.0000 0.0875 (  2183 PWs)   bands (ev):

    -7.7666  -5.9680   1.5280   5.3502   5.4574   6.1415   6.7372   6.8109
    12.5557  14.9503  16.3962  16.9926

     occupation numbers 
     1.0000   1.0000   1.0000   1.0000   1.0000   1.0000   1.0000   1.0000
     0.0000   0.0000   0.0000   0.0000

          k = 0.1667 0.0000 0.1750 (  2182 PWs)   bands (ev):

    -7.5483  -6.3279   2.1846   4.9558   5.5210   6.0727   6.5334   6.6115
    13.0866  14.8725  16.1503  17.0398

     occupation numbers 
     1.0000   1.0000   1.0000   1.0000   1.0000   1.0000   1.0000   1.0000
     0.0000   0.0000   0.0000   0.0000

          k = 0.1667 0.0000 0.2625 (  2199 PWs)   bands (ev):

    -7.2055  -6.7762   3.0922   4.0799   5.7764   6.0328   6.3436   6.4480
    13.7528  14.4146  16.3262  16.7631

     occupation numbers 
     1.0000   1.0000   1.0000   1.0000   1.0000   1.0000   1.0000   1.0000
     0.0000   0.0000   0.0000   0.0000

          k =-0.1667 0.1925 0.0000 (  2181 PWs)   bands (ev):

    -7.4967  -5.6462   1.7039   4.2425   4.7385   5.8134   6.6012   6.7619
    13.1494  15.3702  15.4486  16.5484

     occupation numbers 
     1.0000   1.0000   1.0000   1.0000   1.0000   1.0000   1.0000   1.0000
     0.0000   0.0000   0.0000   0.0000

          k = 0.2500 0.0481 0.0000 (  2181 PWs)   bands (ev):

    -7.4966  -5.6463   1.7039   4.2422   4.7382   5.8138   6.6017   6.7618
    13.1489  15.3702  15.4491  16.5487

     occupation numbers 
     1.0000   1.0000   1.0000   1.0000   1.0000   1.0000   1.0000   1.0000
     0.0000   0.0000   0.0000   0.0000

          k =-0.1667 0.1925 0.0875 (  2184 PWs)   bands (ev):

    -7.4258  -5.7707   1.8836   4.3028   4.6780   5.7617   6.5252   6.7102
    13.1791  15.1981  15.5958  16.5935

     occupation numbers 
     1.0000   1.0000   1.0000   1.0000   1.0000   1.0000   1.0000   1.0000
     0.0000   0.0000   0.0000   0.0000

          k = 0.2500 0.0481 0.0875 (  2184 PWs)   bands (ev):

    -7.4258  -5.7707   1.8836   4.3025   4.6776   5.7622   6.5258   6.7101
    13.1785  15.1985  15.5958  16.5938

     occupation numbers 
     1.0000   1.0000   1.0000   1.0000   1.0000   1.0000   1.0000   1.0000
     0.0000   0.0000   0.0000   0.0000

          k =-0.1667 0.1925 0.1750 (  2190 PWs)   bands (ev):

    -7.2196  -6.0917   2.3559   4.1461   4.7926   5.7372   6.3230   6.4883
    13.3393  14.7759  15.9265  16.7066

     occupation numbers 
     1.0000   1.0000   1.0000   1.0000   1.0000   1.0000   1.0000   1.0000
     0.0000   0.0000   0.0000   0.0000

          k = 0.2500 0.0481 0.1750 (  2190 PWs)   bands (ev):

    -7.2196  -6.0917   2.3558   4.1459   4.7922   5.7377   6.3237   6.4882
    13.3389  14.7763  15.9263  16.7066

     occupation numbers 
     1.0000   1.0000   1.0000   1.0000   1.0000   1.0000   1.0000   1.0000
     0.0000   0.0000   0.0000   0.0000

          k =-0.1667 0.1925 0.2625 (  2188 PWs)   bands (ev):

    -6.8980  -6.5001   2.9781   3.6167   5.2419   5.6943   6.0764   6.2049
    13.7021  14.2222  16.3440  16.6715

     occupation numbers 
     1.0000   1.0000   1.0000   1.0000   1.0000   1.0000   1.0000   1.0000
     0.0000   0.0000   0.0000   0.0000

          k = 0.2500 0.0481 0.2625 (  2188 PWs)   bands (ev):

    -6.8980  -6.5001   2.9779   3.6164   5.2418   5.6945   6.0771   6.2053
    13.7019  14.2223  16.3436  16.6712

     occupation numbers 
     1.0000   1.0000   1.0000   1.0000   1.0000   1.0000   1.0000   1.0000
     0.0000   0.0000   0.0000   0.0000

          k =-0.2500 0.2406 0.0000 (  2191 PWs)   bands (ev):

    -7.0262  -5.4509   2.2996   3.1051   3.9730   5.3423   6.4104   6.4316
    13.6296  14.2145  15.1189  17.2353

     occupation numbers 
     1.0000   1.0000   1.0000   1.0000   1.0000   1.0000   1.0000   1.0000
     0.0000   0.0000   0.0000   0.0000

          k = 0.3333 0.0962 0.0000 (  2191 PWs)   bands (ev):

    -7.0262  -5.4509   2.2997   3.1050   3.9728   5.3426   6.4107   6.4314
    13.6290  14.2151  15.1190  17.2355

     occupation numbers 
     1.0000   1.0000   1.0000   1.0000   1.0000   1.0000   1.0000   1.0000
     0.0000   0.0000   0.0000   0.0000

          k =-0.2500 0.2406 0.0875 (  2192 PWs)   bands (ev):

    -6.9623  -5.5485   2.2608   3.3010   3.9377   5.3320   6.2926   6.4976
    13.3491  14.2622  15.3626  17.2658

     occupation numbers 
     1.0000   1.0000   1.0000   1.0000   1.0000   1.0000   1.0000   1.0000
     0.0000   0.0000   0.0000   0.0000

          k = 0.3333 0.0962 0.0875 (  2192 PWs)   bands (ev):

    -6.9623  -5.5485   2.2608   3.3010   3.9374   5.3323   6.2930   6.4975
    13.3487  14.2626  15.3626  17.2660

     occupation numbers 
     1.0000   1.0000   1.0000   1.0000   1.0000   1.0000   1.0000   1.0000
     0.0000   0.0000   0.0000   0.0000

          k =-0.2500 0.2406 0.1750 (  2185 PWs)   bands (ev):

    -6.7773  -5.8071   2.3070   3.2530   4.2963   5.3982   6.0571   6.4189
    13.0924  14.0787  15.8431  17.2649

     occupation numbers 
     1.0000   1.0000   1.0000   1.0000   1.0000   1.0000   1.0000   1.0000
     0.0000   0.0000   0.0000   0.0000

          k = 0.3333 0.0962 0.1750 (  2185 PWs)   bands (ev):

    -6.7773  -5.8071   2.3069   3.2529   4.2963   5.3984   6.0576   6.4189
    13.0921  14.0790  15.8428  17.2649

     occupation numbers 
     1.0000   1.0000   1.0000   1.0000   1.0000   1.0000   1.0000   1.0000
     0.0000   0.0000   0.0000   0.0000

          k =-0.2500 0.2406 0.2625 (  2181 PWs)   bands (ev):

    -6.4929  -6.1489   2.5256   2.8783   5.0036   5.4992   5.8051   6.0769
    13.2121  13.6326  16.4328  16.9893

     occupation numbers 
     1.0000   1.0000   1.0000   1.0000   1.0000   1.0000   1.0000   1.0000
     0.0000   0.0000   0.0000   0.0000

          k = 0.3333 0.0962 0.2625 (  2181 PWs)   bands (ev):

    -6.4928  -6.1489   2.5254   2.8781   5.0038   5.4993   5.8056   6.0770
    13.2120  13.6327  16.4323  16.9889

     occupation numbers 
     1.0000   1.0000   1.0000   1.0000   1.0000   1.0000   1.0000   1.0000
     0.0000   0.0000   0.0000   0.0000

          k =-0.3333 0.2887 0.0000 (  2186 PWs)   bands (ev):

    -6.5049  -5.3312   2.1919   3.0062   3.3261   4.9848   5.9314   6.2470
    13.1874  13.5878  15.2777  17.3214

     occupation numbers 
     1.0000   1.0000   1.0000   1.0000   1.0000   1.0000   1.0000   1.0000
     0.0000   0.0000   0.0000   0.0000

          k = 0.4167 0.1443 0.0000 (  2186 PWs)   bands (ev):

    -6.5049  -5.3313   2.1919   3.0063   3.3259   4.9850   5.9312   6.2471
    13.1875  13.5877  15.2778  17.3216

     occupation numbers 
     1.0000   1.0000   1.0000   1.0000   1.0000   1.0000   1.0000   1.0000
     0.0000   0.0000   0.0000   0.0000

          k =-0.3333 0.2887 0.0875 (  2194 PWs)   bands (ev):

    -6.4521  -5.3943   2.0066   2.9381   3.6075   5.0119   6.0065   6.2202
    12.8710  13.6678  15.5778  17.1331

     occupation numbers 
     1.0000   1.0000   1.0000   1.0000   1.0000   1.0000   1.0000   1.0000
     0.0000   0.0000   0.0000   0.0000

          k = 0.4167 0.1443 0.0875 (  2194 PWs)   bands (ev):

    -6.4520  -5.3943   2.0065   2.9380   3.6075   5.0120   6.0065   6.2202
    12.8709  13.6678  15.5778  17.1334

     occupation numbers 
     1.0000   1.0000   1.0000   1.0000   1.0000   1.0000   1.0000   1.0000
     0.0000   0.0000   0.0000   0.0000

          k =-0.3333 0.2887 0.1750 (  2189 PWs)   bands (ev):

    -6.3011  -5.5687   1.8406   2.5599   4.3112   5.1773   5.8301   6.2909
    12.5472  13.5759  15.9295  17.1879

     occupation numbers 
     1.0000   1.0000   1.0000   1.0000   1.0000   1.0000   1.0000   1.0000
     0.0000   0.0000   0.0000   0.0000

[...]
    13.6283  13.8828  16.5483  16.7138

     occupation numbers 
     1.0000   1.0000   1.0000   1.0000   1.0000   1.0000   1.0000   1.0000
     0.0000   0.0000   0.0000   0.0000

          k =-0.2500 0.3368 0.0000 (  2179 PWs)   bands (ev):

    -6.6129  -5.3328   2.7378   2.8549   3.3104   4.8406   5.8223   6.1041
    13.4110  14.3618  15.5163  16.9915

     occupation numbers 
     1.0000   1.0000   1.0000   1.0000   1.0000   1.0000   1.0000   1.0000
     0.0000   0.0000   0.0000   0.0000

          k = 0.4167 0.0481 0.0000 (  2179 PWs)   bands (ev):

    -6.6128  -5.3329   2.7377   2.8551   3.3101   4.8407   5.8230   6.1037
    13.4117  14.3611  15.5166  16.9915

     occupation numbers 
     1.0000   1.0000   1.0000   1.0000   1.0000   1.0000   1.0000   1.0000
     0.0000   0.0000   0.0000   0.0000

          k =-0.2500 0.3368 0.0875 (  2184 PWs)   bands (ev):

    -6.5571  -5.4048   2.4139   2.9227   3.7149   4.7346   5.7070   6.2591
    13.3882  14.2154  15.5726  17.0374

     occupation numbers 
     1.0000   1.0000   1.0000   1.0000   1.0000   1.0000   1.0000   1.0000
     0.0000   0.0000   0.0000   0.0000

          k = 0.4167 0.0481 0.0875 (  2184 PWs)   bands (ev):

    -6.5570  -5.4049   2.4137   2.9227   3.7148   4.7347   5.7077   6.2588
    13.3886  14.2151  15.5728  17.0374

     occupation numbers 
     1.0000   1.0000   1.0000   1.0000   1.0000   1.0000   1.0000   1.0000
     0.0000   0.0000   0.0000   0.0000

          k =-0.2500 0.3368 0.1750 (  2182 PWs)   bands (ev):

    -6.3970  -5.6012   2.2187   2.7428   4.3718   4.7495   5.4626   6.3864
    13.3059  13.9200  15.8442  17.0798

     occupation numbers 
     1.0000   1.0000   1.0000   1.0000   1.0000   1.0000   1.0000   1.0000
     0.0000   0.0000   0.0000   0.0000

          k = 0.4167 0.0481 0.1750 (  2182 PWs)   bands (ev):

    -6.3969  -5.6012   2.2183   2.7425   4.3721   4.7495   5.4634   6.3863
    13.3058  13.9203  15.8440  17.0796

     occupation numbers 
     1.0000   1.0000   1.0000   1.0000   1.0000   1.0000   1.0000   1.0000
     0.0000   0.0000   0.0000   0.0000

          k =-0.2500 0.3368 0.2625 (  2193 PWs)   bands (ev):

    -6.1554  -5.8719   2.2546   2.4676   4.6694   4.9199   5.5986   6.1538
    13.3389  13.5936  16.3179  16.8280

     occupation numbers 
     1.0000   1.0000   1.0000   1.0000   1.0000   1.0000   1.0000   1.0000
     0.0000   0.0000   0.0000   0.0000

          k = 0.4167 0.0481 0.2625 (  2193 PWs)   bands (ev):

    -6.1554  -5.8719   2.2541   2.4671   4.6700   4.9203   5.5988   6.1538
    13.3388  13.5938  16.3173  16.8273

     occupation numbers 
     1.0000   1.0000   1.0000   1.0000   1.0000   1.0000   1.0000   1.0000
     0.0000   0.0000   0.0000   0.0000

          k =-0.3333 0.3849 0.0000 (  2186 PWs)   bands (ev):

    -6.1378  -5.3054   2.0625   3.0936   3.5645   4.3179   5.5523   5.6174
    12.6780  14.3256  15.7940  17.1313

     occupation numbers 
     1.0000   1.0000   1.0000   1.0000   1.0000   1.0000   1.0000   1.0000
     0.0000   0.0000   0.0000   0.0000

          k = 0.5000 0.0962 0.0000 (  2186 PWs)   bands (ev):

    -6.1377  -5.3055   2.0625   3.0934   3.5646   4.3180   5.5523   5.6174
    12.6784  14.3253  15.7941  17.1313

     occupation numbers 
     1.0000   1.0000   1.0000   1.0000   1.0000   1.0000   1.0000   1.0000
     0.0000   0.0000   0.0000   0.0000

          k =-0.3333 0.3849 0.0875 (  2194 PWs)   bands (ev):

    -6.0959  -5.3439   1.9635   2.7945   3.8586   4.4115   5.4212   5.8618
    12.7055  14.2739  15.7332  16.9484

     occupation numbers 
     1.0000   1.0000   1.0000   1.0000   1.0000   1.0000   1.0000   1.0000
     0.0000   0.0000   0.0000   0.0000

          k = 0.5000 0.0962 0.0875 (  2194 PWs)   bands (ev):

    -6.0958  -5.3440   1.9635   2.7943   3.8588   4.4115   5.4215   5.8615
    12.7057  14.2738  15.7334  16.9484

     occupation numbers 
     1.0000   1.0000   1.0000   1.0000   1.0000   1.0000   1.0000   1.0000
     0.0000   0.0000   0.0000   0.0000

          k =-0.3333 0.3849 0.1750 (  2194 PWs)   bands (ev):

    -5.9780  -5.4544   1.8179   2.3832   4.0302   4.9064   5.2152   6.2056
    12.7645  14.0044  15.8064  16.7156

     occupation numbers 
     1.0000   1.0000   1.0000   1.0000   1.0000   1.0000   1.0000   1.0000
     0.0000   0.0000   0.0000   0.0000

          k = 0.5000 0.0962 0.1750 (  2194 PWs)   bands (ev):

    -5.9779  -5.4545   1.8178   2.3830   4.0305   4.9064   5.2157   6.2054
    12.7645  14.0046  15.8065  16.7152

     occupation numbers 
     1.0000   1.0000   1.0000   1.0000   1.0000   1.0000   1.0000   1.0000
     0.0000   0.0000   0.0000   0.0000

          k =-0.3333 0.3849 0.2625 (  2194 PWs)   bands (ev):

    -5.8074  -5.6197   1.8202   2.0240   4.2801   4.6411   5.7843   6.2175
    12.9821  13.4725  16.1214  16.5069

     occupation numbers 
     1.0000   1.0000   1.0000   1.0000   1.0000   1.0000   1.0000   1.0000
     0.0000   0.0000   0.0000   0.0000

          k = 0.5000 0.0962 0.2625 (  2194 PWs)   bands (ev):

    -5.8074  -5.6197   1.8200   2.0237   4.2804   4.6414   5.7844   6.2175
    12.9821  13.4726  16.1211  16.5064

     occupation numbers 
     1.0000   1.0000   1.0000   1.0000   1.0000   1.0000   1.0000   1.0000
     0.0000   0.0000   0.0000   0.0000

          k =-0.4167 0.4330 0.0000 (  2198 PWs)   bands (ev):

    -5.8903  -5.3582   1.8162   3.0393   3.9848   4.1053   5.2146   5.5170
    12.4160  14.2607  15.9456  17.1237

     occupation numbers 
     1.0000   1.0000   1.0000   1.0000   1.0000   1.0000   1.0000   1.0000
     0.0000   0.0000   0.0000   0.0000

          k =-0.4167 0.4330 0.0875 (  2193 PWs)   bands (ev):

    -5.8591  -5.3775   1.7416   2.7695   3.8065   4.5866   5.2581   5.6246
    12.4574  14.2414  15.9270  16.7589

     occupation numbers 
     1.0000   1.0000   1.0000   1.0000   1.0000   1.0000   1.0000   1.0000
     0.0000   0.0000   0.0000   0.0000

          k =-0.4167 0.4330 0.1750 (  2198 PWs)   bands (ev):

    -5.7733  -5.4367   1.6258   2.2720   3.8724   4.9510   5.2792   6.0587
    12.5565  14.0260  16.0801  16.2115

     occupation numbers 
     1.0000   1.0000   1.0000   1.0000   1.0000   1.0000   1.0000   1.0000
     0.0000   0.0000   0.0000   0.0000

          k =-0.4167 0.4330 0.2625 (  2194 PWs)   bands (ev):

    -5.6549  -5.5338   1.6379   1.8576   4.1424   4.5319   5.9091   6.2199
    12.8404  13.4321  16.1270  16.2484

     occupation numbers 
     1.0000   1.0000   1.0000   1.0000   1.0000   1.0000   1.0000   1.0000
     0.0000   0.0000   0.0000   0.0000

          k = 0.5000 0.0000 0.0000 (  2171 PWs)   bands (ev):

    -6.1615  -5.2867   2.4218   2.9610   3.5174   4.2297   5.2255   5.6691
    12.6434  14.9194  15.9651  16.9625

     occupation numbers 
     1.0000   1.0000   1.0000   1.0000   1.0000   1.0000   1.0000   1.0000
     0.0000   0.0000   0.0000   0.0000

          k = 0.5000 0.0000 0.0875 (  2190 PWs)   bands (ev):

    -6.1183  -5.3284   2.4111   2.5704   4.0451   4.0729   5.1049   5.9117
    12.8179  14.6978  15.7868  16.8597

     occupation numbers 
     1.0000   1.0000   1.0000   1.0000   1.0000   1.0000   1.0000   1.0000
     0.0000   0.0000   0.0000   0.0000

          k = 0.5000 0.0000 0.1750 (  2195 PWs)   bands (ev):

    -5.9965  -5.4472   2.2185   2.3340   3.8586   4.5815   5.1044   6.2474
    13.1960  14.1405  15.7562  16.5325

     occupation numbers 
     1.0000   1.0000   1.0000   1.0000   1.0000   1.0000   1.0000   1.0000
     0.0000   0.0000   0.0000   0.0000

          k = 0.5000 0.0000 0.2625 (  2198 PWs)   bands (ev):

    -5.8193  -5.6225   2.1025   2.1836   3.9550   4.2662   5.7920   6.2473
    13.4946  13.7152  15.9073  16.1598

     occupation numbers 
     1.0000   1.0000   1.0000   1.0000   1.0000   1.0000   1.0000   1.0000
     0.0000   0.0000   0.0000   0.0000

          k =-0.3333 0.4811 0.0000 (  2195 PWs)   bands (ev):

    -5.7857  -5.3562   2.1223   3.1198   3.6367   4.1524   4.8736   5.1830
    12.1579  15.1141  16.3493  16.9469

     occupation numbers 
     1.0000   1.0000   1.0000   1.0000   1.0000   1.0000   1.0000   1.0000
     0.0000   0.0000   0.0000   0.0000

          k = 0.5833 0.0481 0.0000 (  2195 PWs)   bands (ev):

    -5.7855  -5.3564   2.1224   3.1198   3.6365   4.1527   4.8740   5.1825
    12.1582  15.1140  16.3496  16.9466

     occupation numbers 
     1.0000   1.0000   1.0000   1.0000   1.0000   1.0000   1.0000   1.0000
     0.0000   0.0000   0.0000   0.0000

          k =-0.3333 0.4811 0.0875 (  2194 PWs)   bands (ev):

    -5.7588  -5.3701   2.1132   2.8323   3.4097   4.5628   4.7581   5.5058
    12.3925  15.0298  15.9609  16.6231

     occupation numbers 
     1.0000   1.0000   1.0000   1.0000   1.0000   1.0000   1.0000   1.0000
     0.0000   0.0000   0.0000   0.0000

          k = 0.5833 0.0481 0.0875 (  2194 PWs)   bands (ev):

    -5.7586  -5.3703   2.1131   2.8323   3.4096   4.5628   4.7587   5.5054
    12.3928  15.0296  15.9613  16.6227

     occupation numbers 
     1.0000   1.0000   1.0000   1.0000   1.0000   1.0000   1.0000   1.0000
     0.0000   0.0000   0.0000   0.0000

          k =-0.3333 0.4811 0.1750 (  2203 PWs)   bands (ev):

    -5.6856  -5.4140   2.0498   2.4344   3.2495   4.2865   5.3941   6.0190
    12.9440  14.6305  15.5351  16.0129

     occupation numbers 
     1.0000   1.0000   1.0000   1.0000   1.0000   1.0000   1.0000   1.0000
     0.0000   0.0000   0.0000   0.0000

          k = 0.5833 0.0481 0.1750 (  2203 PWs)   bands (ev):

    -5.6855  -5.4141   2.0497   2.4342   3.2497   4.2868   5.3944   6.0187
    12.9442  14.6305  15.5352  16.0124

     occupation numbers 
     1.0000   1.0000   1.0000   1.0000   1.0000   1.0000   1.0000   1.0000
     0.0000   0.0000   0.0000   0.0000

          k =-0.3333 0.4811 0.2625 (  2203 PWs)   bands (ev):

    -5.5869  -5.4892   2.0094   2.1352   3.4318   3.8251   6.0179   6.2579
    13.5065  14.0417  15.4327  15.6242

     occupation numbers 
     1.0000   1.0000   1.0000   1.0000   1.0000   1.0000   1.0000   1.0000
     0.0000   0.0000   0.0000   0.0000

          k = 0.5833 0.0481 0.2625 (  2203 PWs)   bands (ev):

    -5.5869  -5.4892   2.0091   2.1349   3.4321   3.8255   6.0180   6.2578
    13.5065  14.0418  15.4325  15.6239

     occupation numbers 
     1.0000   1.0000   1.0000   1.0000   1.0000   1.0000   1.0000   1.0000
     0.0000   0.0000   0.0000   0.0000

     the Fermi energy is     8.5629 ev

!    total energy              =    -117.74477681 Ry
     estimated scf accuracy    <          2.3E-10 Ry
     smearing contrib. (-TS)   =       0.00000000 Ry
     internal energy E=F+TS    =    -117.74477681 Ry

     The total energy is F=E-TS. E is the sum of the following terms:
     one-electron contribution =      -1.48919932 Ry
     hartree contribution      =      11.21072306 Ry
     xc contribution           =     -16.40216881 Ry
     ewald contribution        =     -43.64225207 Ry
     one-center paw contrib.   =     -67.42187968 Ry
      -> PAW hartree energy AE =       5.06743063 Ry
      -> PAW hartree energy PS =      -5.05878743 Ry
      -> PAW xc energy AE      =     -72.19817216 Ry
      -> PAW xc energy PS      =       4.76764927 Ry
      -> total E_H with PAW    =      11.21936626 Ry
      -> total E_XC with PAW   =     -83.83269169 Ry

     convergence has been achieved in  17 iterations

     Forces acting on atoms (cartesian axes, Ry/au):

     atom    1 type  1   force =     0.00000000   -0.00021578    0.00918313
     atom    2 type  1   force =     0.00000000    0.00021578    0.00918313
     atom    3 type  2   force =     0.00000000   -0.00021617   -0.00918313
     atom    4 type  2   force =     0.00000000    0.00021617   -0.00918313
     The non-local contrib.  to forces
     atom    1 type  1   force =     0.00000000   -0.00031059    0.01724634
     atom    2 type  1   force =     0.00000000    0.00031059    0.01724634
     atom    3 type  2   force =    -0.00000000   -0.00029804    0.00602979
     atom    4 type  2   force =     0.00000000    0.00029804    0.00602979
     The ionic contribution  to forces
     atom    1 type  1   force =    -0.00000000   -0.00086564    0.09274002
     atom    2 type  1   force =    -0.00000000    0.00086564    0.09274002
     atom    3 type  2   force =    -0.00000000   -0.00090985   -0.09274002
     atom    4 type  2   force =     0.00000000    0.00090985   -0.09274002
     The local contribution  to forces
     atom    1 type  1   force =    -0.00000000    0.00092247   -0.09862450
     atom    2 type  1   force =     0.00000000   -0.00092247   -0.09862450
     atom    3 type  2   force =     0.00000000    0.00098670    0.07738045
     atom    4 type  2   force =    -0.00000000   -0.00098670    0.07738045
     The core correction contribution to forces
     atom    1 type  1   force =     0.00000000    0.00003798   -0.00217852
     atom    2 type  1   force =    -0.00000000   -0.00003798   -0.00217852
     atom    3 type  2   force =     0.00000000    0.00000509    0.00014723
     atom    4 type  2   force =    -0.00000000   -0.00000509    0.00014723
     The Hubbard contrib.    to forces
     atom    1 type  1   force =     0.00000000    0.00000000    0.00000000
     atom    2 type  1   force =     0.00000000    0.00000000    0.00000000
     atom    3 type  2   force =     0.00000000    0.00000000    0.00000000
     atom    4 type  2   force =     0.00000000    0.00000000    0.00000000
     The SCF correction term to forces
     atom    1 type  1   force =    -0.00000000   -0.00000000   -0.00000010
     atom    2 type  1   force =    -0.00000000    0.00000000   -0.00000010
     atom    3 type  2   force =     0.00000000   -0.00000007   -0.00000045
     atom    4 type  2   force =    -0.00000000    0.00000007   -0.00000045

     Total force =     0.018371     Total SCF correction =     0.000001


     Computing stress (Cartesian axis) and pressure

          total   stress  (Ry/bohr**3)                   (kbar)     P=       27.81
   0.00038142   0.00000000   0.00000000           56.11        0.00        0.00
   0.00000000   0.00037726   0.00000000            0.00       55.50        0.00
   0.00000000   0.00000000  -0.00019154            0.00        0.00      -28.18

     kinetic stress (kbar)   9593.94      0.00      0.00
                                0.00   9594.20      0.00
                                0.00      0.00   9584.38

     local   stress (kbar)  -5135.41     -0.00      0.00
                               -0.00  -5129.17      0.00
                                0.00      0.00  -5029.41

     nonloc. stress (kbar)   3732.06     -0.00      0.00
                               -0.00   3731.53     -0.00
                                0.00     -0.00   3668.84

     hartree stress (kbar)   1949.79     -0.00      0.00
                               -0.00   1949.04     -0.00
                                0.00     -0.00   2009.94

     exc-cor stress (kbar)  -1026.19     -0.00      0.00
                               -0.00  -1026.20     -0.00
                                0.00     -0.00  -1026.46

     corecor stress (kbar)  -1454.50     -0.00      0.00
                               -0.00  -1454.43     -0.00
                                0.00     -0.00  -1446.27

     ewald   stress (kbar)  -7603.57      0.00      0.00
                                0.00  -7609.46     -0.00
                                0.00     -0.00  -7789.19

     hubbard stress (kbar)      0.00      0.00      0.00
                                0.00      0.00      0.00
                                0.00      0.00      0.00

     DFT-D   stress (kbar)      0.00      0.00      0.00
                                0.00      0.00      0.00
                                0.00      0.00      0.00

     XDM     stress (kbar)      0.00      0.00      0.00
                                0.00      0.00      0.00
                                0.00      0.00      0.00

     dft-nl  stress (kbar)      0.00      0.00      0.00
                                0.00      0.00      0.00
                                0.00      0.00      0.00

     TS-vdW  stress (kbar)      0.00      0.00      0.00
                                0.00      0.00      0.00
                                0.00      0.00      0.00



     Writing output data file ./out/aiida.save/

     init_run     :     38.97s CPU      7.61s WALL (       1 calls)
     electrons    :   1560.13s CPU    216.75s WALL (       1 calls)
     forces       :      9.95s CPU      1.40s WALL (       1 calls)
     stress       :     26.76s CPU      3.62s WALL (       1 calls)

     Called by init_run:
     wfcinit      :     35.12s CPU      5.40s WALL (       1 calls)
     wfcinit:atom :      0.83s CPU      0.11s WALL (     172 calls)
     wfcinit:wfcr :     32.00s CPU      4.59s WALL (     172 calls)
     potinit      :      1.09s CPU      0.29s WALL (       1 calls)
     hinit0       :      1.90s CPU      1.70s WALL (       1 calls)

     Called by electrons:
     c_bands      :   1300.88s CPU    179.90s WALL (      17 calls)
     sum_band     :    232.86s CPU     30.71s WALL (      17 calls)
     v_of_rho     :      3.40s CPU      1.00s WALL (      18 calls)
     v_h          :      0.27s CPU      0.07s WALL (      18 calls)
     v_xc         :      3.45s CPU      1.02s WALL (      20 calls)
     newd         :     11.87s CPU      1.93s WALL (      18 calls)
     PAW_pot      :     12.41s CPU      3.24s WALL (      18 calls)
     mix_rho      :      0.18s CPU      0.18s WALL (      17 calls)

     Called by c_bands:
     init_us_2    :     20.66s CPU      2.70s WALL (    6364 calls)
     cegterg      :   1256.82s CPU    174.02s WALL (    2924 calls)

     Called by sum_band:
     sum_band:wei :      0.01s CPU      0.01s WALL (      17 calls)
     sum_band:loo :    221.27s CPU     27.75s WALL (      17 calls)
     sum_band:buf :      2.39s CPU      0.31s WALL (    2924 calls)
     sum_band:ini :      9.52s CPU      1.20s WALL (    2924 calls)
     sum_band:cal :     30.60s CPU      3.83s WALL (    2924 calls)
     sum_band:bec :      1.16s CPU      0.16s WALL (    2924 calls)
     addusdens    :     10.72s CPU      2.35s WALL (      17 calls)
     addusd:skk   :      0.05s CPU      0.01s WALL (      34 calls)
     addusd:dgemm :      1.09s CPU      1.13s WALL (      34 calls)
     addusd:qvan2 :      8.29s CPU      1.04s WALL (      34 calls)

     Called by *egterg:
     cdiaghg      :      8.20s CPU      2.60s WALL (   10935 calls)
     cegterg:over :     23.01s CPU      5.91s WALL (    8011 calls)
     cegterg:upda :     24.88s CPU      4.36s WALL (    8011 calls)
     cegterg:last :     46.90s CPU      8.54s WALL (    6117 calls)
     h_psi        :   1085.71s CPU    142.87s WALL (   11107 calls)
     s_psi        :     80.54s CPU     10.16s WALL (   11107 calls)
     g_psi        :      2.92s CPU      0.37s WALL (    8011 calls)

     Called by h_psi:
     h_psi:calbec :     88.41s CPU     11.14s WALL (   11107 calls)
     vloc_psi     :    968.36s CPU    121.35s WALL (   11107 calls)
     add_vuspsi   :     25.06s CPU      9.87s WALL (   11107 calls)

     General routines
     calbec       :    127.19s CPU     16.03s WALL (   14891 calls)
     fft          :      0.98s CPU      0.71s WALL (     257 calls)
     ffts         :      0.09s CPU      0.02s WALL (      35 calls)
     fftw         :   1041.84s CPU    130.82s WALL (  229728 calls)
     interpolate  :      0.07s CPU      0.07s WALL (      18 calls)

     Parallel routines

     PAW routines
     PAW_pot      :     12.41s CPU      3.24s WALL (      18 calls)
     PAW_symme    :      0.01s CPU      0.00s WALL (      35 calls)

     PWSCF        :  27m18.85s CPU   3m51.74s WALL


   This run was terminated on:  16:12:26   9Sep2021            

=------------------------------------------------------------------------------=
   JOB DONE.
=------------------------------------------------------------------------------=
